MMPS 'data.' description 

       6216 atoms
       4000 bonds
       2000 angles

       4 atom types
       1 bond types
       1 angle types

    0.0 42.0     xlo xhi
    0.0 42.0     ylo yhi
    0.0 42.0     zlo zhi

Pair Coeffs

 1 0.0000 0.0000    # Hw-Hw
 2 0.1852 3.1589    # Ow-Ow
 3 0.3519 2.2174    # Na-Na
 4 0.0184 4.6991    # Cl-Cl

Bond Coeffs

 1 0.000  0.9572   # O-H water

Angle Coeffs

 1 0.0 104.52    # H-O-H water

Masses

 1  1.00800   # Hw
 2 15.99940   # Ow
 3 22.99000   # Na
 4 35.45000   # Cl

Atoms

1	1	2	-1.1128	12.971	27.385	37.356
2	1	1	0.5564	12.71	26.489	37.715
3	1	1	0.5564	12.153	27.942	37.221
4	2	2	-1.1128	13.005	36.544	5.956
5	2	1	0.5564	12.224	35.925	6.04
6	2	1	0.5564	12.682	37.49	5.959
7	3	2	-1.1128	25.447	13.533	38.29
8	3	1	0.5564	25.275	14.425	37.872
9	3	1	0.5564	26.355	13.531	38.708
10	4	2	-1.1128	14.969	16.157	39.554
11	4	1	0.5564	15.371	16.403	38.671
12	4	1	0.5564	14.424	15.325	39.452
13	5	2	-1.1128	19.97	33.857	12.986
14	5	1	0.5564	20.018	34.554	13.701
15	5	1	0.5564	20.493	33.053	13.268
16	6	2	-1.1128	17.654	15.699	7.559
17	6	1	0.5564	17.604	14.703	7.48
18	6	1	0.5564	16.731	16.073	7.644
19	7	2	-1.1128	23.64	25.054	27.747
20	7	1	0.5564	24.033	24.401	27.098
21	7	1	0.5564	23.38	25.889	27.263
22	8	2	-1.1128	24.019	33.041	36.927
23	8	1	0.5564	23.688	33.985	36.908
24	8	1	0.5564	23.241	32.415	36.887
25	9	2	-1.1128	2.495	31.846	1.755
26	9	1	0.5564	1.565	31.954	2.107
27	9	1	0.5564	2.578	30.96	1.3
28	10	2	-1.1128	23.641	12.317	38.594
29	10	1	0.5564	23.3	11.503	39.064
30	10	1	0.5564	23.746	12.121	37.62
31	11	2	-1.1128	8.038	10.574	37.381
32	11	1	0.5564	8.491	10.206	36.568
33	11	1	0.5564	8.176	11.563	37.421
34	12	2	-1.1128	35.943	39.991	29.504
35	12	1	0.5564	36.495	40	28.67
36	12	1	0.5564	35.301	39.225	29.472
37	13	2	-1.1128	9.207	28.483	6.981
38	13	1	0.5564	9.68	27.909	7.651
39	13	1	0.5564	9.879	28.972	6.427
40	14	2	-1.1128	32.957	24.791	15.924
41	14	1	0.5564	32.205	25.428	16.09
42	14	1	0.5564	33.534	25.14	15.186
43	15	2	-1.1128	22.823	7.873	20.954
44	15	1	0.5564	22.792	6.876	21.022
45	15	1	0.5564	21.906	8.245	21.091
46	16	2	-1.1128	9.758	33.882	12.649
47	16	1	0.5564	8.774	33.705	12.634
48	16	1	0.5564	9.92	34.868	12.658
49	17	2	-1.1128	28.087	30.691	33.483
50	17	1	0.5564	28.385	30.425	34.399
51	17	1	0.5564	27.229	31.2	33.546
52	18	2	-1.1128	4.653	16.999	18.04
53	18	1	0.5564	5.58	17.374	18.07
54	18	1	0.5564	3.993	17.747	17.98
55	19	2	-1.1128	8.164	16.099	17.735
56	19	1	0.5564	7.473	16.299	18.43
57	19	1	0.5564	7.732	16.073	16.834
58	20	2	-1.1128	8.585	26.588	19.335
59	20	1	0.5564	8.752	26.238	18.413
60	20	1	0.5564	8.49	25.823	19.97
61	21	2	-1.1128	21.475	9.897	13.668
62	21	1	0.5564	20.655	9.495	14.076
63	21	1	0.5564	22.075	9.169	13.337
64	22	2	-1.1128	16.309	32.115	37.785
65	22	1	0.5564	15.695	31.467	37.334
66	22	1	0.5564	17.231	31.732	37.818
67	23	2	-1.1128	10.649	10.601	21.022
68	23	1	0.5564	10.616	9.853	20.359
69	23	1	0.5564	10.578	10.23	21.948
70	24	2	-1.1128	10.295	26.744	23.544
71	24	1	0.5564	11.278	26.566	23.58
72	24	1	0.5564	9.807	25.891	23.362
73	25	2	-1.1128	5.42	22.739	3.85
74	25	1	0.5564	6.398	22.879	4.005
75	25	1	0.5564	4.903	23.115	4.618
76	26	2	-1.1128	21.434	11.694	37.661
77	26	1	0.5564	21.605	10.715	37.772
78	26	1	0.5564	20.628	11.953	38.192
79	27	2	-1.1128	5.598	11.395	10.002
80	27	1	0.5564	6.258	11.858	9.411
81	27	1	0.5564	4.776	11.956	10.089
82	28	2	-1.1128	32.73	21.696	29.903
83	28	1	0.5564	32.859	21.82	28.919
84	28	1	0.5564	32.154	20.895	30.066
85	29	2	-1.1128	19.209	37.844	29.668
86	29	1	0.5564	20.121	38.227	29.812
87	29	1	0.5564	19.287	36.873	29.442
88	30	2	-1.1128	27.08	16.894	10.261
89	30	1	0.5564	26.877	17.31	9.374
90	30	1	0.5564	27.655	17.512	10.796
91	31	2	-1.1128	30.393	23.077	39.43
92	31	1	0.5564	29.77	22.468	39.921
93	31	1	0.5564	30.628	22.672	38.547
94	32	2	-1.1128	33.573	33.873	14.218
95	32	1	0.5564	32.902	33.613	13.524
96	32	1	0.5564	33.406	33.353	15.055
97	33	2	-1.1128	35.682	1.287	19.441
98	33	1	0.5564	36.249	1.445	18.632
99	33	1	0.5564	36.261	1	20.203
100	34	2	-1.1128	28.785	39.137	15.472
101	34	1	0.5564	29.465	38.404	15.476
102	34	1	0.5564	29.23	40.006	15.688
103	35	2	-1.1128	26.847	38.818	28.826
104	35	1	0.5564	26.52	39.734	29.061
105	35	1	0.5564	27.843	38.829	28.749
106	36	2	-1.1128	13.553	10.803	3.278
107	36	1	0.5564	13.424	9.814	3.202
108	36	1	0.5564	13.886	11.026	4.194
109	37	2	-1.1128	32.076	14.298	4.232
110	37	1	0.5564	31.14	14.577	4.448
111	37	1	0.5564	32.39	14.785	3.417
112	38	2	-1.1128	38.689	26.042	13.924
113	38	1	0.5564	39.16	25.271	14.353
114	38	1	0.5564	38.816	26.002	12.934
115	39	2	-1.1128	22.087	39.431	29.474
116	39	1	0.5564	22.811	40.003	29.089
117	39	1	0.5564	21.405	40.011	29.919
118	40	2	-1.1128	17.856	3	36.452
119	40	1	0.5564	17.494	3.932	36.434
120	40	1	0.5564	18.855	3.03	36.46
121	41	2	-1.1128	22.782	21.851	11.011
122	41	1	0.5564	23.152	20.992	11.365
123	41	1	0.5564	21.799	21.755	10.861
124	42	2	-1.1128	2.699	9.458	21.401
125	42	1	0.5564	1.716	9.435	21.583
126	42	1	0.5564	3.108	10.239	21.872
127	43	2	-1.1128	26.96	29.521	29.296
128	43	1	0.5564	27.586	30.301	29.331
129	43	1	0.5564	26.017	29.851	29.303
130	44	2	-1.1128	9.704	17.21	4.703
131	44	1	0.5564	9.185	17.625	5.45
132	44	1	0.5564	10.475	16.696	5.077
133	45	2	-1.1128	18.224	36.713	15.757
134	45	1	0.5564	19.145	36.693	15.367
135	45	1	0.5564	18.067	37.596	16.197
136	46	2	-1.1128	24.339	15.712	32.64
137	46	1	0.5564	23.425	15.329	32.506
138	46	1	0.5564	25.024	15	32.492
139	47	2	-1.1128	14.484	34.394	14.359
140	47	1	0.5564	13.494	34.392	14.503
141	47	1	0.5564	14.824	33.454	14.362
142	48	2	-1.1128	29.57	33.138	14.908
143	48	1	0.5564	30.424	33.602	15.144
144	48	1	0.5564	29.608	32.189	15.221
145	49	2	-1.1128	26.924	10.522	11.567
146	49	1	0.5564	27.77	10.016	11.733
147	49	1	0.5564	27.008	11.046	10.72
148	50	2	-1.1128	35.529	33.796	15.627
149	50	1	0.5564	35.426	32.806	15.734
150	50	1	0.5564	36.401	34.085	16.02
151	51	2	-1.1128	17.206	17.317	39.445
152	51	1	0.5564	17.019	18.263	39.71
153	51	1	0.5564	17.889	16.927	40.062
154	52	2	-1.1128	24.109	12.055	17.782
155	52	1	0.5564	24.512	12.034	18.697
156	52	1	0.5564	24.561	11.378	17.202
157	53	2	-1.1128	29.431	5.573	19.942
158	53	1	0.5564	28.997	4.756	19.561
159	53	1	0.5564	29.874	6.088	19.209
160	54	2	-1.1128	32.773	8.122	38.995
161	54	1	0.5564	33.25	7.662	39.744
162	54	1	0.5564	33.274	7.979	38.142
163	55	2	-1.1128	35.488	24.224	7.738
164	55	1	0.5564	35.378	23.245	7.906
165	55	1	0.5564	34.962	24.74	8.414
166	56	2	-1.1128	25.052	40.008	15.013
167	56	1	0.5564	24.571	39.279	14.526
168	56	1	0.5564	25.696	39.606	15.664
169	57	2	-1.1128	25.361	27.056	38.537
170	57	1	0.5564	24.95	27.169	39.441
171	57	1	0.5564	25.38	27.937	38.066
172	58	2	-1.1128	10.788	37.678	8.308
173	58	1	0.5564	10.131	36.935	8.18
174	58	1	0.5564	11.669	37.416	7.917
175	59	2	-1.1128	14.001	6.433	31.751
176	59	1	0.5564	13.788	6.763	32.671
177	59	1	0.5564	13.152	6.266	31.251
178	60	2	-1.1128	29.32	33.27	5.081
179	60	1	0.5564	28.86	34.112	5.362
180	60	1	0.5564	30.309	33.416	5.073
181	61	2	-1.1128	18.101	20.689	5.049
182	61	1	0.5564	18.864	20.403	5.628
183	61	1	0.5564	17.872	19.956	4.411
184	62	2	-1.1128	19.863	13.014	27.81
185	62	1	0.5564	19.337	12.33	28.316
186	62	1	0.5564	20.839	12.875	27.977
187	63	2	-1.1128	26.542	26.411	19.001
188	63	1	0.5564	26.856	26.597	18.07
189	63	1	0.5564	25.554	26.549	19.054
190	64	2	-1.1128	11.718	5.16	35.196
191	64	1	0.5564	10.799	5.073	34.81
192	64	1	0.5564	12.195	5.918	34.753
193	65	2	-1.1128	27.186	20.019	37.459
194	65	1	0.5564	27.97	20.621	37.305
195	65	1	0.5564	27.482	19.066	37.411
196	66	2	-1.1128	11.442	38.545	12.442
197	66	1	0.5564	12.348	38.409	12.04
198	66	1	0.5564	11.267	39.524	12.546
199	67	2	-1.1128	6.761	13.182	38.213
200	67	1	0.5564	6.042	13.752	37.815
201	67	1	0.5564	6.537	12.978	39.166
202	68	2	-1.1128	9.158	28.032	28.777
203	68	1	0.5564	8.408	27.964	29.435
204	68	1	0.5564	9.884	27.393	29.03
205	69	2	-1.1128	1.584	20.856	8.033
206	69	1	0.5564	2.234	21.615	8.039
207	69	1	0.5564	2.071	20	7.861
208	70	2	-1.1128	38.824	7.768	19.881
209	70	1	0.5564	38.508	6.833	19.72
210	70	1	0.5564	38.038	8.361	20.05
211	71	2	-1.1128	3.253	31.419	17.315
212	71	1	0.5564	3.253	30.461	17.029
213	71	1	0.5564	2.338	31.802	17.199
214	72	2	-1.1128	36.056	16.801	14.638
215	72	1	0.5564	36.712	17.541	14.486
216	72	1	0.5564	35.406	16.771	13.879
217	73	2	-1.1128	12.315	29.533	8.29
218	73	1	0.5564	12.553	28.589	8.061
219	73	1	0.5564	11.368	29.712	8.024
220	74	2	-1.1128	7.912	29.187	4.393
221	74	1	0.5564	8.8	28.726	4.375
222	74	1	0.5564	7.43	29.015	3.535
223	75	2	-1.1128	19.627	7.965	6.561
224	75	1	0.5564	18.686	8.294	6.644
225	75	1	0.5564	19.633	6.966	6.556
226	76	2	-1.1128	12.978	2.058	1
227	76	1	0.5564	12.542	1.202	1.281
228	76	1	0.5564	13.944	2.039	1.254
229	77	2	-1.1128	38.017	21.212	1.841
230	77	1	0.5564	37.769	21.356	2.799
231	77	1	0.5564	37.294	21.569	1.251
232	78	2	-1.1128	8.837	3.007	13.679
233	78	1	0.5564	9.427	3.814	13.647
234	78	1	0.5564	7.95	3.258	14.067
235	79	2	-1.1128	32.371	3.934	27.528
236	79	1	0.5564	31.868	3.071	27.474
237	79	1	0.5564	32.863	3.981	28.396
238	80	2	-1.1128	3.611	12.676	1.036
239	80	1	0.5564	4.508	12.236	1
240	80	1	0.5564	2.896	11.978	1.02
241	81	2	-1.1128	15.57	29.962	33.171
242	81	1	0.5564	16.479	29.703	32.846
243	81	1	0.5564	15.115	29.161	33.56
244	82	2	-1.1128	16.276	26.691	25.334
245	82	1	0.5564	16.879	27.443	25.064
246	82	1	0.5564	16.825	25.925	25.664
247	83	2	-1.1128	36.531	19.125	21.789
248	83	1	0.5564	37.015	19.998	21.727
249	83	1	0.5564	35.613	19.224	21.407
250	84	2	-1.1128	25.139	24.71	12.904
251	84	1	0.5564	26.021	24.603	12.445
252	84	1	0.5564	24.606	23.871	12.803
253	85	2	-1.1128	25.058	4.474	34.189
254	85	1	0.5564	24.65	5	33.442
255	85	1	0.5564	26.041	4.648	34.221
256	86	2	-1.1128	22.663	21.428	35.767
257	86	1	0.5564	22.252	22.338	35.824
258	86	1	0.5564	22.624	20.988	36.664
259	87	2	-1.1128	13.272	27.025	17.535
260	87	1	0.5564	13.252	26.541	16.66
261	87	1	0.5564	14.031	26.684	18.088
262	88	2	-1.1128	18.833	32.092	40.061
263	88	1	0.5564	19.476	31.7	39.403
264	88	1	0.5564	17.922	31.711	39.906
265	89	2	-1.1128	24.215	21.605	27.931
266	89	1	0.5564	25.154	21.947	27.981
267	89	1	0.5564	23.586	22.372	27.815
268	90	2	-1.1128	13.753	13.154	27.329
269	90	1	0.5564	14.284	12.689	26.62
270	90	1	0.5564	14.374	13.605	27.969
271	91	2	-1.1128	37.244	2.124	22.59
272	91	1	0.5564	37.742	2.048	23.454
273	91	1	0.5564	36.267	2.219	22.775
274	92	2	-1.1128	9.198	22.993	27.367
275	92	1	0.5564	9.665	22.657	26.549
276	92	1	0.5564	8.955	23.954	27.242
277	93	2	-1.1128	33.958	18.593	14.958
278	93	1	0.5564	34.915	18.581	15.249
279	93	1	0.5564	33.373	18.792	15.744
280	94	2	-1.1128	39.317	6.77	6.502
281	94	1	0.5564	38.42	6.381	6.712
282	94	1	0.5564	40	6.041	6.482
283	95	2	-1.1128	37.823	35.917	10.995
284	95	1	0.5564	38.571	35.918	10.331
285	95	1	0.5564	38.03	35.271	11.729
286	96	2	-1.1128	39.428	19.146	7.862
287	96	1	0.5564	40.001	19.737	8.43
288	96	1	0.5564	39.44	18.217	8.23
289	97	2	-1.1128	6.778	14.222	22.01
290	97	1	0.5564	6.212	13.398	22.042
291	97	1	0.5564	7.734	13.977	22.166
292	98	2	-1.1128	20.121	30.919	28.611
293	98	1	0.5564	19.323	30.324	28.712
294	98	1	0.5564	19.825	31.874	28.595
295	99	2	-1.1128	30.862	3.935	39.076
296	99	1	0.5564	30.482	3.983	40
297	99	1	0.5564	31.821	3.659	39.124
298	100	2	-1.1128	14.147	21.656	7.829
299	100	1	0.5564	14.454	20.807	7.397
300	100	1	0.5564	14.683	21.821	8.656
301	101	2	-1.1128	34.706	16.496	10.26
302	101	1	0.5564	35.584	16.236	10.661
303	101	1	0.5564	34.587	16.028	9.385
304	102	2	-1.1128	9.625	4.782	25.275
305	102	1	0.5564	10.133	5.18	26.039
306	102	1	0.5564	8.718	4.501	25.587
307	103	2	-1.1128	5.826	28.072	15.142
308	103	1	0.5564	6.763	28.197	15.47
309	103	1	0.5564	5.696	27.124	14.855
310	104	2	-1.1128	34.486	6.004	20.924
311	104	1	0.5564	34.387	6.049	19.929
312	104	1	0.5564	35.159	6.68	21.222
313	105	2	-1.1128	2.371	3.186	29.228
314	105	1	0.5564	2.798	4.09	29.232
315	105	1	0.5564	3.081	2.482	29.227
316	106	2	-1.1128	3.022	39.574	34.175
317	106	1	0.5564	3.145	38.584	34.115
318	106	1	0.5564	2.046	39.791	34.164
319	107	2	-1.1128	39.112	6.122	32.853
320	107	1	0.5564	39.813	6.196	33.563
321	107	1	0.5564	39.551	5.995	31.964
322	108	2	-1.1128	36.097	28.297	27.27
323	108	1	0.5564	36.18	27.54	27.919
324	108	1	0.5564	35.152	28.358	26.948
325	109	2	-1.1128	16.686	19.226	19.43
326	109	1	0.5564	15.844	19.321	18.898
327	109	1	0.5564	16.764	19.99	20.07
328	110	2	-1.1128	8.461	11.022	11.048
329	110	1	0.5564	8.742	10.452	11.82
330	110	1	0.5564	7.539	11.372	11.21
331	111	2	-1.1128	9.485	29.372	13.698
332	111	1	0.5564	10.193	30.053	13.51
333	111	1	0.5564	9.628	28.984	14.608
334	112	2	-1.1128	16.912	39.916	16.076
335	112	1	0.5564	16.934	40	15.08
336	112	1	0.5564	16.439	39.073	16.33
337	113	2	-1.1128	35.013	39.919	12.845
338	113	1	0.5564	35.996	40.002	13.006
339	113	1	0.5564	34.721	38.982	13.035
340	114	2	-1.1128	31.79	14.28	15.074
341	114	1	0.5564	31.399	13.433	14.711
342	114	1	0.5564	32.748	14.348	14.8
343	115	2	-1.1128	9.886	4.389	1.126
344	115	1	0.5564	10.331	5.282	1.046
345	115	1	0.5564	8.9	4.495	0.999
346	116	2	-1.1128	29.169	27.074	37.864
347	116	1	0.5564	28.512	27.434	38.527
348	116	1	0.5564	28.749	27.053	36.957
349	117	2	-1.1128	20.751	35.753	24.847
350	117	1	0.5564	21.084	36.574	25.311
351	117	1	0.5564	20.989	34.946	25.386
352	118	2	-1.1128	5.753	4.55	16.831
353	118	1	0.5564	5.924	5.527	16.698
354	118	1	0.5564	4.839	4.42	17.212
355	119	2	-1.1128	27.388	30.047	10.728
356	119	1	0.5564	27.669	30.056	9.768
357	119	1	0.5564	27.274	29.102	11.033
358	120	2	-1.1128	17.472	29.729	21.836
359	120	1	0.5564	16.805	30.322	21.384
360	120	1	0.5564	16.999	28.953	22.252
361	121	2	-1.1128	32.229	24.333	7.106
362	121	1	0.5564	33.176	24.648	7.044
363	121	1	0.5564	31.611	25.088	6.891
364	122	2	-1.1128	2.486	13.032	33.967
365	122	1	0.5564	1.508	12.905	34.134
366	122	1	0.5564	2.791	13.882	34.394
367	123	2	-1.1128	23.914	35.839	13.622
368	123	1	0.5564	23.464	36.371	14.339
369	123	1	0.5564	24.7	36.348	13.273
370	124	2	-1.1128	38.807	5.782	3.34
371	124	1	0.5564	39.296	5.557	4.183
372	124	1	0.5564	37.842	5.94	3.546
373	125	2	-1.1128	4.111	25.257	30.067
374	125	1	0.5564	3.241	24.765	30.019
375	125	1	0.5564	4.469	25.211	30.999
376	126	2	-1.1128	22.613	16.204	24.085
377	126	1	0.5564	22.677	15.496	24.789
378	126	1	0.5564	21.66	16.483	23.978
379	127	2	-1.1128	39.388	14.339	14.745
380	127	1	0.5564	40	14.909	14.197
381	127	1	0.5564	39.81	14.152	15.631
382	128	2	-1.1128	37.529	8.544	32.607
383	128	1	0.5564	37.923	9.17	33.281
384	128	1	0.5564	37.262	7.694	33.059
385	129	2	-1.1128	4.149	22.968	26.832
386	129	1	0.5564	3.83	22.432	27.614
387	129	1	0.5564	4.381	23.892	27.134
388	130	2	-1.1128	10.248	5.295	9.603
389	130	1	0.5564	9.526	5.35	8.914
390	130	1	0.5564	10.608	6.21	9.782
391	131	2	-1.1128	37.044	30.258	14.418
392	131	1	0.5564	36.68	31.179	14.558
393	131	1	0.5564	36.547	29.612	14.995
394	132	2	-1.1128	38.461	25.915	10.194
395	132	1	0.5564	38.667	25.485	9.315
396	132	1	0.5564	38.015	25.251	10.793
397	133	2	-1.1128	24.707	14.075	10.227
398	133	1	0.5564	23.768	14.018	9.887
399	133	1	0.5564	24.944	15.032	10.392
400	134	2	-1.1128	36.318	4.37	32.367
401	134	1	0.5564	36.933	3.585	32.287
402	134	1	0.5564	36.855	5.202	32.5
403	135	2	-1.1128	21.481	21.379	39.363
404	135	1	0.5564	21.874	20.58	39.818
405	135	1	0.5564	20.484	21.318	39.383
406	136	2	-1.1128	4.584	31.893	36.431
407	136	1	0.5564	3.755	31.492	36.041
408	136	1	0.5564	4.407	32.174	37.374
409	137	2	-1.1128	18.15	21.118	33.134
410	137	1	0.5564	17.393	21.766	33.216
411	137	1	0.5564	17.85	20.214	33.438
412	138	2	-1.1128	22.279	23.988	38.767
413	138	1	0.5564	22.182	24.983	38.806
414	138	1	0.5564	21.805	23.576	39.544
415	139	2	-1.1128	11.501	24.359	22.952
416	139	1	0.5564	11.525	23.393	22.695
417	139	1	0.5564	12.419	24.747	22.875
418	140	2	-1.1128	25.433	39.997	25.837
419	140	1	0.5564	25.432	39.066	25.471
420	140	1	0.5564	25.871	40.002	26.735
421	141	2	-1.1128	27.43	9.872	33.991
422	141	1	0.5564	27.671	9.157	34.648
423	141	1	0.5564	27.237	10.722	34.48
424	142	2	-1.1128	8.576	8.429	39.621
425	142	1	0.5564	7.65	8.441	40
426	142	1	0.5564	8.601	8.973	38.783
427	143	2	-1.1128	30.928	14.795	1.306
428	143	1	0.5564	31.389	15.666	1.475
429	143	1	0.5564	31.609	14.071	1.203
430	144	2	-1.1128	10.266	37.163	5.782
431	144	1	0.5564	10.042	36.231	6.065
432	144	1	0.5564	10.77	37.139	4.92
433	145	2	-1.1128	34.849	29.271	29.904
434	145	1	0.5564	35.403	28.45	29.767
435	145	1	0.5564	35.441	30.076	29.913
436	146	2	-1.1128	35.118	7.299	28.804
437	146	1	0.5564	34.18	7.607	28.645
438	146	1	0.5564	35.725	7.718	28.13
439	147	2	-1.1128	37.419	9.892	39.271
440	147	1	0.5564	37.06	9.443	38.452
441	147	1	0.5564	38.044	10.624	39.004
442	148	2	-1.1128	38.206	29.231	3.17
443	148	1	0.5564	37.958	28.69	3.973
444	148	1	0.5564	38.175	30.203	3.399
445	149	2	-1.1128	21.024	16.823	38.893
446	149	1	0.5564	21.859	17.276	39.206
447	149	1	0.5564	20.983	16.853	37.894
448	150	2	-1.1128	7.312	19.564	19.955
449	150	1	0.5564	7.6	18.628	19.751
450	150	1	0.5564	6.427	19.548	20.419
451	151	2	-1.1128	15.214	4.526	19.361
452	151	1	0.5564	15.334	4.34	18.386
453	151	1	0.5564	14.316	4.938	19.514
454	152	2	-1.1128	8.783	21.506	39.454
455	152	1	0.5564	9.09	22.286	40
456	152	1	0.5564	9.485	21.271	38.783
457	153	2	-1.1128	5.531	29.279	23.044
458	153	1	0.5564	5.409	29.377	22.056
459	153	1	0.5564	6.496	29.394	23.275
460	154	2	-1.1128	19.397	32.022	4.682
461	154	1	0.5564	18.609	31.465	4.943
462	154	1	0.5564	20.145	31.427	4.391
463	155	2	-1.1128	8.7	9.337	28.14
464	155	1	0.5564	8.261	8.689	28.763
465	155	1	0.5564	8.109	9.49	27.349
466	156	2	-1.1128	10.968	12.706	8.04
467	156	1	0.5564	11.49	12.885	8.874
468	156	1	0.5564	10.372	13.485	7.846
469	157	2	-1.1128	34.505	35.784	28.516
470	157	1	0.5564	35.167	35.161	28.932
471	157	1	0.5564	33.61	35.651	28.94
472	158	2	-1.1128	3.877	8.185	25.613
473	158	1	0.5564	3.562	7.621	24.85
474	158	1	0.5564	3.347	7.966	26.432
475	159	2	-1.1128	9.2	20.116	18.969
476	159	1	0.5564	9.368	20.787	18.247
477	159	1	0.5564	9.767	19.308	18.812
478	160	2	-1.1128	5.844	32.83	15.217
479	160	1	0.5564	5.253	32.035	15.084
480	160	1	0.5564	5.376	33.501	15.791
481	161	2	-1.1128	31.738	36.38	31.082
482	161	1	0.5564	32.424	37.097	30.958
483	161	1	0.5564	32.189	35.488	31.111
484	162	2	-1.1128	17.844	31.894	17.648
485	162	1	0.5564	17.62	32.852	17.464
486	162	1	0.5564	17.008	31.392	17.865
487	163	2	-1.1128	6.039	5.585	20.574
488	163	1	0.5564	5.249	6.199	20.569
489	163	1	0.5564	6.88	6.123	20.579
490	164	2	-1.1128	28.626	31.564	12.235
491	164	1	0.5564	29.26	32.14	12.752
492	164	1	0.5564	28.758	31.718	11.257
493	165	2	-1.1128	24.8	31.396	26.55
494	165	1	0.5564	25.677	31.824	26.767
495	165	1	0.5564	24.952	30.454	26.255
496	166	2	-1.1128	34.201	38.099	10.816
497	166	1	0.5564	34.808	37.34	10.582
498	166	1	0.5564	33.585	37.82	11.552
499	167	2	-1.1128	20.158	10.673	6.021
500	167	1	0.5564	20.78	9.915	5.824
501	167	1	0.5564	19.213	10.347	5.986
502	168	2	-1.1128	24.996	11.116	9.196
503	168	1	0.5564	24.381	11.879	9.399
504	168	1	0.5564	25.843	11.468	8.798
505	169	2	-1.1128	14.862	28.691	2.244
506	169	1	0.5564	13.908	28.804	2.52
507	169	1	0.5564	15.124	27.731	2.333
508	170	2	-1.1128	23.17	8.893	29.012
509	170	1	0.5564	22.948	7.952	29.271
510	170	1	0.5564	22.328	9.386	28.793
511	171	2	-1.1128	21.897	6.392	34.573
512	171	1	0.5564	22.666	6.104	34.002
513	171	1	0.5564	21.669	7.344	34.37
514	172	2	-1.1128	18.526	12.537	31.685
515	172	1	0.5564	18.318	12.563	30.707
516	172	1	0.5564	19.364	12.015	31.835
517	173	2	-1.1128	23.198	6.741	18.042
518	173	1	0.5564	23.893	6.022	18.066
519	173	1	0.5564	23.643	7.636	18.056
520	174	2	-1.1128	32.961	23.816	18.896
521	174	1	0.5564	32.127	23.893	18.349
522	174	1	0.5564	33.524	24.631	18.761
523	175	2	-1.1128	5.547	11.882	12.163
524	175	1	0.5564	6.023	12.758	12.084
525	175	1	0.5564	4.569	12.043	12.292
526	176	2	-1.1128	24.437	24.201	2.301
527	176	1	0.5564	23.8	24.956	2.147
528	176	1	0.5564	25.21	24.522	2.848
529	177	2	-1.1128	38.194	35.649	18.096
530	177	1	0.5564	37.196	35.587	18.098
531	177	1	0.5564	38.585	34.73	18.137
532	178	2	-1.1128	23.998	31.878	20.185
533	178	1	0.5564	23.344	31.948	20.939
534	178	1	0.5564	24.582	31.079	20.324
535	179	2	-1.1128	4.061	22.807	9.643
536	179	1	0.5564	4.245	23.446	8.895
537	179	1	0.5564	4.901	22.648	10.16
538	180	2	-1.1128	16.057	26.813	32.497
539	180	1	0.5564	15.698	25.882	32.558
540	180	1	0.5564	16.569	27.029	33.328
541	181	2	-1.1128	2.742	14.824	18.579
542	181	1	0.5564	2.758	15.775	18.27
543	181	1	0.5564	2.123	14.294	18
544	182	2	-1.1128	23.506	27.603	36.153
545	182	1	0.5564	22.581	27.948	35.994
546	182	1	0.5564	24.171	28.31	35.916
547	183	2	-1.1128	23.52	17.64	8.047
548	183	1	0.5564	23.982	17.524	7.168
549	183	1	0.5564	22.57	17.34	7.967
550	184	2	-1.1128	35.815	30.158	12.349
551	184	1	0.5564	36.78	29.915	12.251
552	184	1	0.5564	35.723	31.152	12.394
553	185	2	-1.1128	17.191	5.514	32.534
554	185	1	0.5564	18.046	5.932	32.842
555	185	1	0.5564	17.302	4.522	32.488
556	186	2	-1.1128	11.228	34.893	8.543
557	186	1	0.5564	11.668	34.128	8.072
558	186	1	0.5564	11.472	34.873	9.512
559	187	2	-1.1128	24.885	30.082	11.473
560	187	1	0.5564	24.304	30.196	10.667
561	187	1	0.5564	25.023	29.108	11.65
562	188	2	-1.1128	9.535	23.674	33.227
563	188	1	0.5564	9.759	22.964	33.894
564	188	1	0.5564	8.573	23.929	33.321
565	189	2	-1.1128	31.617	25.599	4.748
566	189	1	0.5564	31.607	26.582	4.932
567	189	1	0.5564	32.538	25.319	4.482
568	190	2	-1.1128	39.071	32.063	28.076
569	190	1	0.5564	40	31.699	28.014
570	190	1	0.5564	38.919	32.718	27.337
571	191	2	-1.1128	4.161	36.978	24.107
572	191	1	0.5564	4.842	37.683	24.308
573	191	1	0.5564	3.259	37.293	24.401
574	192	2	-1.1128	26.314	11.356	37.27
575	192	1	0.5564	25.936	10.856	36.491
576	192	1	0.5564	26.758	12.191	36.947
577	193	2	-1.1128	28.183	5.909	39.889
578	193	1	0.5564	28.785	6.68	39.676
579	193	1	0.5564	27.246	6.239	40
580	194	2	-1.1128	3.297	37.775	12.193
581	194	1	0.5564	2.917	36.862	12.339
582	194	1	0.5564	4.068	37.72	11.559
583	195	2	-1.1128	3.092	6.789	21.156
584	195	1	0.5564	2.245	7.307	21.278
585	195	1	0.5564	2.874	5.86	20.86
586	196	2	-1.1128	30.858	19.883	25.323
587	196	1	0.5564	31.149	19.251	26.041
588	196	1	0.5564	30.331	19.386	24.634
589	197	2	-1.1128	6.997	23.335	7.081
590	197	1	0.5564	7.726	23.741	6.529
591	197	1	0.5564	6.186	23.198	6.513
592	198	2	-1.1128	30.226	5.023	15.067
593	198	1	0.5564	30.016	5.706	14.367
594	198	1	0.5564	30.007	4.112	14.72
595	199	2	-1.1128	15.91	4.401	7.426
596	199	1	0.5564	15.466	5.002	8.091
597	199	1	0.5564	16.903	4.483	7.513
598	200	2	-1.1128	32.891	6.878	24.463
599	200	1	0.5564	31.959	6.614	24.712
600	200	1	0.5564	33.179	6.365	23.655
601	201	2	-1.1128	20.501	0.997	19.368
602	201	1	0.5564	20.862	1.823	18.935
603	201	1	0.5564	19.77	1.245	20.003
604	202	2	-1.1128	3.926	34.789	3.528
605	202	1	0.5564	3.279	34.161	3.094
606	202	1	0.5564	3.75	35.72	3.212
607	203	2	-1.1128	5.075	14.221	35.666
608	203	1	0.5564	6.075	14.241	35.674
609	203	1	0.5564	4.723	15.157	35.662
610	204	2	-1.1128	29.323	14.172	37.005
611	204	1	0.5564	28.87	13.444	37.519
612	204	1	0.5564	29.458	13.878	36.059
613	205	2	-1.1128	29.424	23.866	19.742
614	205	1	0.5564	30.178	23.241	19.946
615	205	1	0.5564	29.772	24.8	19.681
616	206	2	-1.1128	19.558	23.169	15.753
617	206	1	0.5564	19.124	22.272	15.831
618	206	1	0.5564	18.855	23.88	15.746
619	207	2	-1.1128	17.197	35.803	13.416
620	207	1	0.5564	18.182	35.814	13.592
621	207	1	0.5564	16.826	36.722	13.544
622	208	2	-1.1128	22.663	30	14.625
623	208	1	0.5564	21.914	30.338	14.056
624	208	1	0.5564	22.785	30.606	15.411
625	209	2	-1.1128	6.964	21.15	32.616
626	209	1	0.5564	6.766	20.187	32.434
627	209	1	0.5564	7.954	21.289	32.636
628	210	2	-1.1128	3.283	17.699	4.276
629	210	1	0.5564	3.108	17.572	5.252
630	210	1	0.5564	4.206	17.385	4.058
631	211	2	-1.1128	17.818	15.086	18.366
632	211	1	0.5564	18.476	15.601	17.816
633	211	1	0.5564	17.14	15.712	18.749
634	212	2	-1.1128	16.817	14.31	22.891
635	212	1	0.5564	17.563	14.448	22.239
636	212	1	0.5564	17.094	14.644	23.791
637	213	2	-1.1128	4.748	16.394	8.106
638	213	1	0.5564	4.959	15.753	8.844
639	213	1	0.5564	5.597	16.701	7.677
640	214	2	-1.1128	8.99	7.771	24.662
641	214	1	0.5564	9.387	6.879	24.447
642	214	1	0.5564	8.144	7.644	25.179
643	215	2	-1.1128	14.458	12.803	16.332
644	215	1	0.5564	13.98	13.671	16.195
645	215	1	0.5564	13.805	12.049	16.27
646	216	2	-1.1128	28.865	19.116	32.426
647	216	1	0.5564	28.231	19.646	32.99
648	216	1	0.5564	29.041	18.234	32.861
649	217	2	-1.1128	38.544	14.941	36.279
650	217	1	0.5564	38.99	14.328	35.628
651	217	1	0.5564	37.564	14.748	36.303
652	218	2	-1.1128	30.511	25.523	35.713
653	218	1	0.5564	29.842	24.995	35.19
654	218	1	0.5564	31.383	25.035	35.728
655	219	2	-1.1128	9.859	25.82	11.894
656	219	1	0.5564	10.25	26.711	12.124
657	219	1	0.5564	9.643	25.792	10.918
658	220	2	-1.1128	11.435	6.768	22.815
659	220	1	0.5564	11.196	7.74	22.822
660	220	1	0.5564	12.424	6.669	22.706
661	221	2	-1.1128	16.098	9.167	19.728
662	221	1	0.5564	16.889	8.88	19.187
663	221	1	0.5564	15.537	8.37	19.947
664	222	2	-1.1128	2.385	21.857	3.089
665	222	1	0.5564	1.485	22.139	3.422
666	222	1	0.5564	2.96	22.664	2.96
667	223	2	-1.1128	1.661	35.183	24.158
668	223	1	0.5564	1.335	36.116	24.313
669	223	1	0.5564	2.656	35.189	24.064
670	224	2	-1.1128	23.6	21.06	8.122
671	224	1	0.5564	23.824	22.009	8.344
672	224	1	0.5564	23.7	20.915	7.139
673	225	2	-1.1128	11.223	6.068	12.405
674	225	1	0.5564	11.722	5.673	11.634
675	225	1	0.5564	10.251	5.854	12.319
676	226	2	-1.1128	10.841	23.281	10.549
677	226	1	0.5564	11.418	22.471	10.659
678	226	1	0.5564	10.295	23.417	11.374
679	227	2	-1.1128	23.506	24.232	20.547
680	227	1	0.5564	23.873	23.746	19.754
681	227	1	0.5564	24.178	24.896	20.872
682	228	2	-1.1128	9.841	32.944	29.152
683	228	1	0.5564	10.041	32.376	29.95
684	228	1	0.5564	9.249	33.703	29.422
685	229	2	-1.1128	9.389	32.238	26
686	229	1	0.5564	9.127	31.347	25.629
687	229	1	0.5564	8.671	32.57	26.609
688	230	2	-1.1128	39.013	32.324	35.162
689	230	1	0.5564	39.547	31.626	34.684
690	230	1	0.5564	39.632	32.981	35.591
691	231	2	-1.1128	34.668	37.167	30.676
692	231	1	0.5564	35.505	36.624	30.603
693	231	1	0.5564	34.496	37.389	31.635
694	232	2	-1.1128	38.813	20.985	14.803
695	232	1	0.5564	39.519	20.46	15.279
696	232	1	0.5564	38.358	20.401	14.132
697	233	2	-1.1128	40.002	31.748	18.135
698	233	1	0.5564	39.396	32.514	17.916
699	233	1	0.5564	39.951	31.553	19.114
700	234	2	-1.1128	24.145	37.63	16.01
701	234	1	0.5564	24.92	37.799	16.619
702	234	1	0.5564	23.508	36.997	16.448
703	235	2	-1.1128	15.998	22.732	20.596
704	235	1	0.5564	16.405	22.217	21.352
705	235	1	0.5564	16.702	23.289	20.156
706	236	2	-1.1128	23.029	35.343	34.909
707	236	1	0.5564	22.428	34.548	34.992
708	236	1	0.5564	23.981	35.051	34.987
709	237	2	-1.1128	14.084	22.357	4.478
710	237	1	0.5564	14.561	22.884	3.774
711	237	1	0.5564	13.617	22.982	5.102
712	238	2	-1.1128	21.04	20.167	17.418
713	238	1	0.5564	21.937	19.848	17.724
714	238	1	0.5564	20.767	20.963	17.957
715	239	2	-1.1128	15.924	24.678	30.171
716	239	1	0.5564	15.218	25.355	29.961
717	239	1	0.5564	16.68	25.122	30.651
718	240	2	-1.1128	2.803	2.838	3.589
719	240	1	0.5564	1.849	2.771	3.881
720	240	1	0.5564	2.854	3.348	2.731
721	241	2	-1.1128	10.707	12.266	36.916
722	241	1	0.5564	10.307	11.445	36.507
723	241	1	0.5564	9.984	12.824	37.321
724	242	2	-1.1128	30.433	3.23	25.278
725	242	1	0.5564	30.643	4.206	25.208
726	242	1	0.5564	29.451	3.11	25.416
727	243	2	-1.1128	4.848	29.621	9.752
728	243	1	0.5564	5.539	29.046	10.19
729	243	1	0.5564	4.018	29.086	9.597
730	244	2	-1.1128	19.02	36.088	10.831
731	244	1	0.5564	19.533	35.231	10.884
732	244	1	0.5564	18.044	35.9	10.932
733	245	2	-1.1128	33.158	30.881	5.828
734	245	1	0.5564	33.357	29.967	5.475
735	245	1	0.5564	33.904	31.502	5.587
736	246	2	-1.1128	24.738	4.142	9.577
737	246	1	0.5564	25.424	4.82	9.312
738	246	1	0.5564	24.932	3.817	10.502
739	247	2	-1.1128	32.479	14.4	21.5
740	247	1	0.5564	32.712	13.431	21.424
741	247	1	0.5564	32.864	14.898	20.723
742	248	2	-1.1128	25.377	31.664	14.502
743	248	1	0.5564	25.078	32.617	14.468
744	248	1	0.5564	24.96	31.211	15.289
745	249	2	-1.1128	2.305	23.251	32.818
746	249	1	0.5564	1.523	23.768	32.47
747	249	1	0.5564	2.381	22.387	32.323
748	250	2	-1.1128	14.117	31.383	14.611
749	250	1	0.5564	14.327	30.433	14.379
750	250	1	0.5564	13.359	31.704	14.044
751	251	2	-1.1128	18.004	39.142	21.743
752	251	1	0.5564	18.964	38.944	21.945
753	251	1	0.5564	17.614	39.69	22.482
754	252	2	-1.1128	19.582	16.455	34.631
755	252	1	0.5564	18.586	16.382	34.562
756	252	1	0.5564	19.831	17.391	34.877
757	253	2	-1.1128	39.088	7.285	30.243
758	253	1	0.5564	39.977	7.741	30.278
759	253	1	0.5564	38.4	7.858	30.687
760	254	2	-1.1128	15.135	14.046	6.001
761	254	1	0.5564	14.956	14.981	6.309
762	254	1	0.5564	16.111	13.849	6.083
763	255	2	-1.1128	19.828	28.292	36.633
764	255	1	0.5564	20.458	28.505	35.886
765	255	1	0.5564	19.288	29.103	36.855
766	256	2	-1.1128	11.657	2.063	18.289
767	256	1	0.5564	12.106	1.835	17.425
768	256	1	0.5564	10.78	1.588	18.345
769	257	2	-1.1128	12.805	14.245	25.583
770	257	1	0.5564	12.918	13.408	25.047
771	257	1	0.5564	11.84	14.363	25.817
772	258	2	-1.1128	29.047	23.702	24.421
773	258	1	0.5564	28.938	23.574	25.407
774	258	1	0.5564	29.362	22.849	24.007
775	259	2	-1.1128	6.92	1.914	6.645
776	259	1	0.5564	6.777	1.844	5.657
777	259	1	0.5564	7.031	0.999	7.032
778	260	2	-1.1128	10.063	12.816	22.193
779	260	1	0.5564	10.339	12.346	23.031
780	260	1	0.5564	10.85	13.29	21.801
781	261	2	-1.1128	8.427	5.315	23.194
782	261	1	0.5564	7.61	5.645	23.666
783	261	1	0.5564	8.563	4.346	23.398
784	262	2	-1.1128	19.967	7.629	28.044
785	262	1	0.5564	20.84	7.685	28.53
786	262	1	0.5564	19.219	7.583	28.705
787	263	2	-1.1128	25.359	28.461	6.616
788	263	1	0.5564	24.829	28.039	7.351
789	263	1	0.5564	25.914	27.765	6.162
790	264	2	-1.1128	33.315	31.347	26.715
791	264	1	0.5564	32.651	32.087	26.826
792	264	1	0.5564	34.205	31.731	26.47
793	265	2	-1.1128	33.356	3.124	35.929
794	265	1	0.5564	33.982	2.983	36.696
795	265	1	0.5564	32.552	3.628	36.242
796	266	2	-1.1128	6.182	13.287	24.598
797	266	1	0.5564	6.243	13.656	25.526
798	266	1	0.5564	7.004	12.756	24.396
799	267	2	-1.1128	14.565	35.214	7.399
800	267	1	0.5564	14.488	34.462	8.053
801	267	1	0.5564	15.518	35.316	7.118
802	268	2	-1.1128	5.936	32.72	25.78