MMPS 'data.' description 

       6072 atoms
       4000 bonds
       2000 angles

       4 atom types
       1 bond types
       1 angle types

    0.0 42.0     xlo xhi
    0.0 42.0     ylo yhi
    0.0 42.0     zlo zhi

Pair Coeffs

 1 0.0000 0.0000    # Hw-Hw
 2 0.1820 3.1589    # Ow-Ow
 3 0.3519 2.2174    # Na-Na
 4 0.0184 4.6991    # Cl-Cl

Bond Coeffs

 1 0.000  0.9572   # O-H water

Angle Coeffs

 1 0.0 104.52    # H-O-H water

Masses

 1  1.00800   # Hw
 2 15.99940   # Ow
 3 22.99000   # Na
 4 35.45000   # Cl

Atoms

1	1	2	-1.1128	26.3420	23.4880	32.0980
2	1	1	0.5564	26.3770	23.6110	31.1060
3	1	1	0.5564	26.4060	24.3790	32.5470
4	2	2	-1.1128	20.7820	18.8400	11.8430
5	2	1	0.5564	21.7350	19.0210	12.0850
6	2	1	0.5564	20.3320	19.6970	11.5910
7	3	2	-1.1128	21.6160	25.7230	16.4840
8	3	1	0.5564	21.3600	24.8190	16.1390
9	3	1	0.5564	22.6100	25.7770	16.5740
10	4	2	-1.1128	12.0550	4.9800	22.8700
11	4	1	0.5564	11.3820	4.4010	23.3310
12	4	1	0.5564	12.8890	5.0230	23.4200
13	5	2	-1.1128	35.4440	10.2570	26.5880
14	5	1	0.5564	36.1740	10.9200	26.4220
15	5	1	0.5564	35.7130	9.6460	27.3330
16	6	2	-1.1128	22.1740	0.5730	8.0120
17	6	1	0.5564	21.8340	1.4780	7.7530
18	6	1	0.5564	22.4630	0.0780	7.1930
19	7	2	-1.1128	9.4110	26.8590	18.5030
20	7	1	0.5564	9.4510	26.2270	19.2780
21	7	1	0.5564	8.8690	27.6600	18.7540
22	8	2	-1.1128	24.1460	21.6500	9.8220
23	8	1	0.5564	23.4060	22.2710	10.0810
24	8	1	0.5564	25.0080	22.1540	9.7870
25	9	2	-1.1128	25.3730	12.9960	4.1170
26	9	1	0.5564	25.1150	13.0880	3.1550
27	9	1	0.5564	24.5770	13.1780	4.6940
28	10	2	-1.1128	39.1730	8.6760	27.2910
29	10	1	0.5564	39.9400	8.6320	26.6500
30	10	1	0.5564	39.4590	8.3160	28.1790
31	11	2	-1.1128	27.4820	21.1550	24.8360
32	11	1	0.5564	28.0600	20.3680	24.6190
33	11	1	0.5564	28.0430	21.9810	24.8770
34	12	2	-1.1128	6.0460	12.3570	4.6610
35	12	1	0.5564	5.2370	12.9440	4.6560
36	12	1	0.5564	6.8570	12.9040	4.4540
37	13	2	-1.1128	10.7120	0.7900	27.6680
38	13	1	0.5564	11.2570	0.0000	27.3850
39	13	1	0.5564	9.9720	0.4870	28.2670
40	14	2	-1.1128	3.3930	19.5660	10.7160
41	14	1	0.5564	2.9740	18.8350	10.1780
42	14	1	0.5564	2.7040	20.2550	10.9360
43	15	2	-1.1128	38.8480	37.8520	22.8180
44	15	1	0.5564	38.1750	38.5670	22.6270
45	15	1	0.5564	38.4090	36.9560	22.7570
46	16	2	-1.1128	14.6220	21.1170	11.4270
47	16	1	0.5564	15.3070	20.7690	12.0670
48	16	1	0.5564	14.4670	22.0890	11.5990
49	17	2	-1.1128	12.3850	11.7830	19.7800
50	17	1	0.5564	12.7850	12.0600	18.9060
51	17	1	0.5564	11.5810	12.3440	19.9720
52	18	2	-1.1128	36.1740	33.8130	6.7700
53	18	1	0.5564	36.7710	34.5640	7.0530
54	18	1	0.5564	35.3210	34.1840	6.4050
55	19	2	-1.1128	23.2910	14.3290	1.1900
56	19	1	0.5564	23.9180	13.7140	0.7110
57	19	1	0.5564	23.7180	15.2280	1.2910
58	20	2	-1.1128	15.4960	8.5630	39.9990
59	20	1	0.5564	14.5510	8.2350	39.9960
60	20	1	0.5564	15.9610	8.2520	39.1710
61	21	2	-1.1128	30.2760	19.6300	22.6370
62	21	1	0.5564	30.4690	18.8220	22.0790
63	21	1	0.5564	29.5340	19.4250	23.2750
64	22	2	-1.1128	0.1660	8.0800	35.6490
65	22	1	0.5564	0.7320	8.3020	34.8550
66	22	1	0.5564	0.0050	8.9070	36.1860
67	23	2	-1.1128	32.3520	24.9810	10.7440
68	23	1	0.5564	31.4670	24.5180	10.7850
69	23	1	0.5564	33.0840	24.3010	10.7170
70	24	2	-1.1128	31.7350	5.0920	16.3190
71	24	1	0.5564	31.6360	4.6280	15.4390
72	24	1	0.5564	31.6940	4.4190	17.0570
73	25	2	-1.1128	39.9900	37.0440	11.2430
74	25	1	0.5564	39.7820	37.5480	12.0810
75	25	1	0.5564	39.9970	36.0630	11.4360
76	26	2	-1.1128	20.9590	37.8510	4.2820
77	26	1	0.5564	20.4860	36.9710	4.2400
78	26	1	0.5564	21.9140	37.7300	4.0120
79	27	2	-1.1128	1.0350	28.0100	9.0080
80	27	1	0.5564	2.0280	28.1170	8.9530
81	27	1	0.5564	0.8030	27.0380	9.0070
82	28	2	-1.1128	25.6140	30.9450	24.6420
83	28	1	0.5564	26.4930	31.3870	24.4640
84	28	1	0.5564	24.9240	31.6420	24.8360
85	29	2	-1.1128	15.0730	24.0610	8.8610
86	29	1	0.5564	15.3950	24.2330	9.7930
87	29	1	0.5564	14.2810	23.4520	8.8890
88	30	2	-1.1128	33.0180	14.0540	5.6730
89	30	1	0.5564	33.2930	13.0920	5.6710
90	30	1	0.5564	33.8310	14.6340	5.6740
91	31	2	-1.1128	37.3040	13.5130	10.4110
92	31	1	0.5564	36.8530	14.4000	10.5080
93	31	1	0.5564	36.7680	12.9320	9.7980
94	32	2	-1.1128	23.1440	24.5470	2.7540
95	32	1	0.5564	22.6170	23.6980	2.8020
96	32	1	0.5564	23.8260	24.5580	3.4840
97	33	2	-1.1128	22.3080	18.4020	16.1960
98	33	1	0.5564	22.5410	17.4530	15.9840
99	33	1	0.5564	21.3410	18.4620	16.4390
100	34	2	-1.1128	33.9390	7.5660	13.2060
101	34	1	0.5564	34.8600	7.4130	12.8460
102	34	1	0.5564	33.7380	8.5450	13.2040
103	35	2	-1.1128	31.5050	24.7060	38.2760
104	35	1	0.5564	30.5360	24.9410	38.3600
105	35	1	0.5564	31.7460	24.6270	37.3100
106	36	2	-1.1128	31.5030	33.4210	36.2450
107	36	1	0.5564	32.1030	33.1420	35.4950
108	36	1	0.5564	31.9410	34.1520	36.7680
109	37	2	-1.1128	20.9280	36.7640	30.6900
110	37	1	0.5564	20.3660	37.5790	30.8330
111	37	1	0.5564	20.4340	35.9580	31.0140
112	38	2	-1.1128	32.7370	19.5350	36.4670
113	38	1	0.5564	31.9930	18.8720	36.5500
114	38	1	0.5564	33.5030	19.2510	37.0430
115	39	2	-1.1128	37.0710	20.8450	25.0490
116	39	1	0.5564	37.0510	20.4770	25.9790
117	39	1	0.5564	37.8700	21.4350	24.9410
118	40	2	-1.1128	6.1850	9.1820	9.5830
119	40	1	0.5564	5.5060	9.9070	9.7040
120	40	1	0.5564	5.8840	8.5610	8.8610
121	41	2	-1.1128	26.7480	32.0550	5.1310
122	41	1	0.5564	26.1700	32.4630	5.8370
123	41	1	0.5564	26.3840	32.2850	4.2280
124	42	2	-1.1128	1.8410	17.0580	9.0320
125	42	1	0.5564	1.3430	17.9210	8.9440
126	42	1	0.5564	1.3620	16.4590	9.6730
127	43	2	-1.1128	0.8650	37.2020	13.9460
128	43	1	0.5564	0.0000	36.9100	13.5370
129	43	1	0.5564	1.5700	37.2480	13.2390
130	44	2	-1.1128	33.5680	26.3720	8.3600
131	44	1	0.5564	34.4840	26.7280	8.5470
132	44	1	0.5564	32.9230	27.1310	8.2890
133	45	2	-1.1128	1.2820	14.6840	7.0230
134	45	1	0.5564	2.0230	15.3430	7.1450
135	45	1	0.5564	1.6270	13.7600	7.1840
136	46	2	-1.1128	21.4720	8.9800	2.0660
137	46	1	0.5564	21.0820	8.3490	1.3950
138	46	1	0.5564	20.7390	9.5120	2.4890
139	47	2	-1.1128	23.3980	11.3700	26.5450
140	47	1	0.5564	23.0930	12.1010	27.1560
141	47	1	0.5564	24.3810	11.4560	26.3860
142	48	2	-1.1128	31.0720	1.0750	38.5620
143	48	1	0.5564	30.1740	1.4250	38.2960
144	48	1	0.5564	30.9900	0.1170	38.8340
145	49	2	-1.1128	20.4820	38.2370	32.9250
146	49	1	0.5564	20.7040	37.4770	33.5350
147	49	1	0.5564	20.7960	39.0940	33.3320
148	50	2	-1.1128	19.4950	24.5190	34.6040
149	50	1	0.5564	19.2510	24.7460	35.5470
150	50	1	0.5564	19.0370	25.1510	33.9800
151	51	2	-1.1128	1.2570	14.5800	19.9010
152	51	1	0.5564	1.6210	14.1180	20.7100
153	51	1	0.5564	1.3910	15.5660	19.9920
154	52	2	-1.1128	12.8810	5.4280	13.4350
155	52	1	0.5564	13.1600	6.3200	13.0790
156	52	1	0.5564	12.9290	4.7470	12.7050
157	53	2	-1.1128	11.0670	21.1580	39.8520
158	53	1	0.5564	11.9950	21.5070	39.7200
159	53	1	0.5564	10.4130	21.9110	39.7780
160	54	2	-1.1128	6.2930	36.9680	23.3490
161	54	1	0.5564	5.4420	36.4590	23.2170
162	54	1	0.5564	6.1040	37.9490	23.3130
163	55	2	-1.1128	38.4940	26.5510	0.6020
164	55	1	0.5564	38.6250	25.8160	1.2680
165	55	1	0.5564	37.7630	27.1570	0.9120
166	56	2	-1.1128	35.2660	2.0310	35.3430
167	56	1	0.5564	35.9580	2.1310	36.0580
168	56	1	0.5564	34.9040	2.9310	35.1010
169	57	2	-1.1128	12.2400	9.5680	21.5300
170	57	1	0.5564	11.4280	10.1390	21.4000
171	57	1	0.5564	13.0580	10.1420	21.5100
172	58	2	-1.1128	20.3550	23.4190	0.2310
173	58	1	0.5564	19.7560	24.1990	0.0460
174	58	1	0.5564	19.8060	22.5880	0.3120
175	59	2	-1.1128	13.1050	33.4590	19.5350
176	59	1	0.5564	13.3260	33.9430	20.3810
177	59	1	0.5564	12.3960	32.7780	19.7150
178	60	2	-1.1128	23.9730	17.3380	34.9280
179	60	1	0.5564	24.0960	17.0110	33.9910
180	60	1	0.5564	24.7850	17.8440	35.2150
181	61	2	-1.1128	36.7440	22.3860	40.0140
182	61	1	0.5564	36.9510	23.1710	39.4300
183	61	1	0.5564	36.4640	21.6130	39.4460
184	62	2	-1.1128	12.0150	37.1510	21.3910
185	62	1	0.5564	11.0770	36.8090	21.3360
186	62	1	0.5564	12.6520	36.3810	21.3860
187	63	2	-1.1128	7.7790	4.3200	26.9730
188	63	1	0.5564	8.6810	4.7520	26.9920
189	63	1	0.5564	7.0720	5.0170	27.0870
190	64	2	-1.1128	37.1730	35.6570	33.0290
191	64	1	0.5564	36.4210	34.9990	33.0210
192	64	1	0.5564	37.8430	35.4080	32.3300
193	65	2	-1.1128	11.3900	7.8240	18.2060
194	65	1	0.5564	11.1830	6.8810	17.9430
195	65	1	0.5564	10.5450	8.2930	18.4590
196	66	2	-1.1128	39.3390	34.6280	18.7070
197	66	1	0.5564	39.9890	35.3460	18.4570
198	66	1	0.5564	38.4920	34.7500	18.1920
199	67	2	-1.1128	37.9720	23.0320	9.8240
200	67	1	0.5564	37.9740	22.3730	9.0710
201	67	1	0.5564	37.2800	22.7690	10.4950
202	68	2	-1.1128	23.1680	14.5280	15.6810
203	68	1	0.5564	24.0780	14.1150	15.7130
204	68	1	0.5564	22.4750	13.8180	15.7970
205	69	2	-1.1128	33.3650	31.7640	15.7740
206	69	1	0.5564	33.6340	30.8560	15.4510
207	69	1	0.5564	33.3350	32.3980	15.0020
208	70	2	-1.1128	9.0300	23.0370	27.3690
209	70	1	0.5564	8.2890	23.5320	27.8220
210	70	1	0.5564	8.7780	22.0750	27.2720
211	71	2	-1.1128	16.5270	13.9170	35.7570
212	71	1	0.5564	15.8020	13.8810	36.4450
213	71	1	0.5564	17.3990	13.6660	36.1770
214	72	2	-1.1128	18.6250	26.5080	26.8720
215	72	1	0.5564	19.3990	26.0470	27.3060
216	72	1	0.5564	18.1980	25.8920	26.2110
217	73	2	-1.1128	18.0630	12.3160	12.4780
218	73	1	0.5564	18.1490	11.7160	13.2740
219	73	1	0.5564	17.8390	11.7700	11.6720
220	74	2	-1.1128	0.0000	7.0370	28.7780
221	74	1	0.5564	0.0010	7.4580	29.6860
222	74	1	0.5564	0.6670	6.2940	28.7530
223	75	2	-1.1128	16.1000	28.9440	6.3510
224	75	1	0.5564	16.0760	27.9500	6.4590
225	75	1	0.5564	17.0490	29.2500	6.2920
226	76	2	-1.1128	5.6420	38.2750	36.6910
227	76	1	0.5564	5.6880	38.1470	37.6810
228	76	1	0.5564	5.1790	37.4930	36.2740
229	77	2	-1.1128	31.3670	32.8110	33.0620
230	77	1	0.5564	30.3890	32.8820	32.8640
231	77	1	0.5564	31.5310	32.0260	33.6590
232	78	2	-1.1128	20.6930	34.2600	26.7860
233	78	1	0.5564	19.7010	34.1420	26.7360
234	78	1	0.5564	21.1310	33.3680	26.8880
235	79	2	-1.1128	3.0760	30.2960	10.3650
236	79	1	0.5564	4.0520	30.1220	10.2380
237	79	1	0.5564	2.6110	30.2530	9.4810
238	80	2	-1.1128	30.2750	14.3460	35.1840
239	80	1	0.5564	31.2310	14.5710	34.9970
240	80	1	0.5564	29.9200	13.7650	34.4520
241	81	2	-1.1128	14.9120	0.9260	13.1700
242	81	1	0.5564	14.8180	0.0010	13.5390
243	81	1	0.5564	14.0390	1.2230	12.7840
244	82	2	-1.1128	3.1560	17.5840	7.0010
245	82	1	0.5564	2.4230	17.6780	6.3270
246	82	1	0.5564	3.1600	18.3820	7.6030
247	83	2	-1.1128	4.6330	7.1370	10.8630
248	83	1	0.5564	5.6120	7.0980	11.0640
249	83	1	0.5564	4.4980	7.1960	9.8740
250	84	2	-1.1128	34.2190	4.9580	28.6260
251	84	1	0.5564	33.8270	5.1440	29.5280
252	84	1	0.5564	35.1140	5.3980	28.5550
253	85	2	-1.1128	23.4830	38.8120	15.9390
254	85	1	0.5564	23.7400	39.7670	16.0950
255	85	1	0.5564	22.5040	38.6990	16.1020
256	86	2	-1.1128	28.1380	11.0810	16.4520
257	86	1	0.5564	28.4480	12.0230	16.3210
258	86	1	0.5564	28.3480	10.7870	17.3840
259	87	2	-1.1128	28.7160	14.7860	5.3790
260	87	1	0.5564	29.3670	14.0270	5.3990
261	87	1	0.5564	29.2090	15.6500	5.4750
262	88	2	-1.1128	22.8610	15.7370	9.1490
263	88	1	0.5564	21.8960	15.7690	8.8870
264	88	1	0.5564	23.0380	14.8990	9.6640
265	89	2	-1.1128	35.7610	36.7620	37.0540
266	89	1	0.5564	36.6350	36.6320	36.5850
267	89	1	0.5564	35.1020	36.0860	36.7250
268	90	2	-1.1128	33.3120	4.2530	26.4470
269	90	1	0.5564	34.0830	4.8640	26.2670
270	90	1	0.5564	32.4610	4.7000	26.1710
271	91	2	-1.1128	9.2210	0.4740	11.9760
272	91	1	0.5564	8.7050	0.0050	12.6930
273	91	1	0.5564	10.0940	0.0080	11.8340
274	92	2	-1.1128	10.4690	27.7960	38.7200
275	92	1	0.5564	9.8350	28.5630	38.6180
276	92	1	0.5564	11.2400	28.0740	39.2930
277	93	2	-1.1128	29.7140	5.4410	26.1610
278	93	1	0.5564	29.7260	6.3170	26.6430
279	93	1	0.5564	28.8460	5.3380	25.6760
280	94	2	-1.1128	35.5050	12.7680	16.3370
281	94	1	0.5564	36.4360	12.6980	15.9780
282	94	1	0.5564	35.5090	12.5680	17.3170
283	95	2	-1.1128	9.5600	22.7750	4.1810
284	95	1	0.5564	9.2560	23.7280	4.1700
285	95	1	0.5564	10.5590	22.7430	4.1730
286	96	2	-1.1128	5.8390	38.3010	26.0870
287	96	1	0.5564	5.6490	37.9660	27.0100
288	96	1	0.5564	6.0000	37.5260	25.4770
289	97	2	-1.1128	35.3050	39.8530	23.6800
290	97	1	0.5564	34.4390	39.8430	23.1820
291	97	1	0.5564	35.9570	39.2450	23.2280
292	98	2	-1.1128	8.0980	35.3930	25.6620
293	98	1	0.5564	7.7800	35.9860	24.9220
294	98	1	0.5564	7.9660	34.4370	25.4040
295	99	2	-1.1128	10.0280	10.5090	17.2850
296	99	1	0.5564	9.1820	9.9770	17.3060
297	99	1	0.5564	10.7870	9.9190	17.0110
298	100	2	-1.1128	27.6470	33.6900	1.9580
299	100	1	0.5564	27.7130	34.3730	2.6860
300	100	1	0.5564	27.3420	34.1300	1.1140
301	101	2	-1.1128	37.9670	28.7670	33.8850
302	101	1	0.5564	38.6980	28.3070	34.3900
303	101	1	0.5564	37.6970	28.2050	33.1040
304	102	2	-1.1128	2.8700	33.4960	33.3200
305	102	1	0.5564	2.9760	33.4330	34.3130
306	102	1	0.5564	3.1920	34.3880	33.0060
307	103	2	-1.1128	12.6680	2.0500	29.8420
308	103	1	0.5564	11.9900	2.0800	30.5760
309	103	1	0.5564	12.2610	1.6340	29.0290
310	104	2	-1.1128	12.1960	32.7210	5.2740
311	104	1	0.5564	11.9420	31.7840	5.5180
312	104	1	0.5564	13.0510	32.9640	5.7320
313	105	2	-1.1128	19.5120	17.7210	32.6900
314	105	1	0.5564	19.1010	18.0740	33.5310
315	105	1	0.5564	19.5690	16.7250	32.7390
316	106	2	-1.1128	20.3410	14.6010	12.5040
317	106	1	0.5564	21.2610	14.2210	12.4130
318	106	1	0.5564	20.4010	15.5500	12.8140
319	107	2	-1.1128	37.2420	3.2840	34.5390
320	107	1	0.5564	38.1020	2.8800	34.8490
321	107	1	0.5564	37.1780	4.2260	34.8680
322	108	2	-1.1128	36.7760	26.4730	30.7250
323	108	1	0.5564	37.3570	25.9270	31.3300
324	108	1	0.5564	35.8260	26.1790	30.8210
325	109	2	-1.1128	3.7420	34.7290	28.6010
326	109	1	0.5564	3.1580	33.9980	28.2470
327	109	1	0.5564	4.2420	34.3990	29.4010
328	110	2	-1.1128	30.8790	36.2770	15.3220
329	110	1	0.5564	30.4550	37.1780	15.2320
330	110	1	0.5564	30.1670	35.5770	15.3720
331	111	2	-1.1128	14.1850	35.5320	36.8390
332	111	1	0.5564	14.6350	35.7640	35.9760
333	111	1	0.5564	14.6680	34.7730	37.2740
334	112	2	-1.1128	26.3620	7.3970	22.5980
335	112	1	0.5564	26.5290	6.8410	21.7830
336	112	1	0.5564	25.7840	8.1760	22.3570
337	113	2	-1.1128	10.8930	28.2200	28.3810
338	113	1	0.5564	11.8820	28.3360	28.2890
339	113	1	0.5564	10.4470	29.1140	28.3350
340	114	2	-1.1128	33.2080	17.7110	9.8300
341	114	1	0.5564	33.6670	16.9800	10.3350
342	114	1	0.5564	32.5860	17.3120	9.1570
343	115	2	-1.1128	16.0520	27.3630	11.5330
344	115	1	0.5564	16.7270	26.8960	10.9620
345	115	1	0.5564	16.0950	27.0000	12.4640
346	116	2	-1.1128	4.3720	14.1920	20.6340
347	116	1	0.5564	3.6770	14.8370	20.3180
348	116	1	0.5564	3.9680	13.5670	21.3010
349	117	2	-1.1128	2.7860	20.1830	33.9340
350	117	1	0.5564	1.8700	20.2420	34.3300
351	117	1	0.5564	2.8030	20.6640	33.0580
352	118	2	-1.1128	18.6950	4.5130	7.9350
353	118	1	0.5564	18.9520	5.4770	7.8740
354	118	1	0.5564	17.9940	4.3110	7.2510
355	119	2	-1.1128	29.4860	31.7700	11.3760
356	119	1	0.5564	29.4450	31.1760	12.1800
357	119	1	0.5564	30.3860	32.2030	11.3270
358	120	2	-1.1128	14.0000	26.5230	39.2580
359	120	1	0.5564	13.0220	26.6220	39.4450
360	120	1	0.5564	14.4390	27.4200	39.2910
361	121	2	-1.1128	6.7570	38.3550	6.2980
362	121	1	0.5564	6.2710	37.4870	6.1960
363	121	1	0.5564	6.0970	39.0960	6.4140
364	122	2	-1.1128	9.1680	9.6400	30.6420
365	122	1	0.5564	9.2420	10.1100	29.7630
366	122	1	0.5564	8.3540	9.9600	31.1250
367	123	2	-1.1128	32.8780	22.3740	5.3840
368	123	1	0.5564	33.1840	21.9870	6.2540
369	123	1	0.5564	32.7190	21.6360	4.7290
370	124	2	-1.1128	18.1170	39.9340	32.1630
371	124	1	0.5564	18.4900	39.0740	32.5120
372	124	1	0.5564	18.2920	40.0000	31.1810
373	125	2	-1.1128	9.6910	16.9430	36.2890
374	125	1	0.5564	10.0420	16.0060	36.3160
375	125	1	0.5564	9.0040	17.0200	35.5670
376	126	2	-1.1128	38.8900	0.6840	11.9010
377	126	1	0.5564	39.7790	0.2260	11.9070
378	126	1	0.5564	38.1620	0.0000	11.8930
379	127	2	-1.1128	16.0550	21.7950	38.5050
380	127	1	0.5564	15.7460	20.8510	38.3920
381	127	1	0.5564	15.2900	22.3630	38.8060
382	128	2	-1.1128	8.7260	11.1030	33.8310
383	128	1	0.5564	9.0570	10.1980	34.1020
384	128	1	0.5564	7.7470	11.0550	33.6370
385	129	2	-1.1128	25.4650	14.0870	33.7550
386	129	1	0.5564	24.8810	13.3140	34.0060
387	129	1	0.5564	26.3910	13.7600	33.5740
388	130	2	-1.1128	13.4120	18.1460	11.2850
389	130	1	0.5564	13.2490	17.3300	10.7300
390	130	1	0.5564	14.2570	18.5890	10.9860
391	131	2	-1.1128	20.0670	29.0980	33.9020
392	131	1	0.5564	19.4480	28.3140	33.8490
393	131	1	0.5564	21.0130	28.7810	33.8420
394	132	2	-1.1128	9.0350	7.3910	34.0580
395	132	1	0.5564	8.2590	6.7760	33.9190
396	132	1	0.5564	9.8510	7.0010	33.6320
397	133	2	-1.1128	16.4590	7.2820	35.5850
398	133	1	0.5564	15.9080	6.8460	34.8730
399	133	1	0.5564	16.6990	6.6070	36.2820
400	134	2	-1.1128	16.5620	38.5950	29.0430
401	134	1	0.5564	16.8180	39.5580	29.1300
402	134	1	0.5564	15.5700	38.5210	28.9450
403	135	2	-1.1128	19.9180	22.2090	31.8880
404	135	1	0.5564	20.0360	22.3560	30.9060
405	135	1	0.5564	19.9390	23.0880	32.3620
406	136	2	-1.1128	6.9850	13.0770	20.3230
407	136	1	0.5564	6.7140	13.7440	21.0180
408	136	1	0.5564	7.2480	13.5560	19.4860
409	137	2	-1.1128	33.8050	29.9600	34.4480
410	137	1	0.5564	33.1500	30.7160	34.4320
411	137	1	0.5564	34.7350	30.3230	34.3910
412	138	2	-1.1128	16.3670	23.2960	25.1190
413	138	1	0.5564	15.9380	24.1740	25.3330
414	138	1	0.5564	15.6590	22.6230	24.9050
415	139	2	-1.1128	37.2280	33.9770	3.2840
416	139	1	0.5564	36.9810	33.9500	2.3150
417	139	1	0.5564	36.4020	33.9010	3.8420
418	140	2	-1.1128	14.0650	37.2820	11.8450
419	140	1	0.5564	15.0390	37.3440	11.6280
420	140	1	0.5564	13.5410	37.1700	11.0020
421	141	2	-1.1128	23.8120	24.6790	10.3220
422	141	1	0.5564	23.3310	25.3070	9.7100
423	141	1	0.5564	24.7520	24.5590	10.0040
424	142	2	-1.1128	24.9510	17.9950	4.1500
425	142	1	0.5564	25.5890	17.9790	4.9200
426	142	1	0.5564	25.2280	18.7020	3.5010
427	143	2	-1.1128	14.2160	16.7040	25.2500
428	143	1	0.5564	15.1030	16.6380	25.7080
429	143	1	0.5564	13.7530	15.8190	25.2900
430	144	2	-1.1128	36.3320	20.6290	15.5020
431	144	1	0.5564	37.1560	21.1810	15.6290
432	144	1	0.5564	36.5890	19.7070	15.2130
433	145	2	-1.1128	28.3160	1.4170	16.0390
434	145	1	0.5564	28.0690	0.5100	16.3810
435	145	1	0.5564	27.4930	1.8930	15.7320
436	146	2	-1.1128	32.8120	4.2120	0.3190
437	146	1	0.5564	32.0960	4.9050	0.2260
438	146	1	0.5564	32.4130	3.3030	0.2080
439	147	2	-1.1128	38.9980	38.6190	15.2480
440	147	1	0.5564	38.2940	39.2970	15.4620
441	147	1	0.5564	39.8910	38.9620	15.5360
442	148	2	-1.1128	13.8370	30.2480	5.7490
443	148	1	0.5564	12.9280	29.8300	5.7350
444	148	1	0.5564	13.8740	30.9430	6.4670
445	149	2	-1.1128	28.6310	24.9550	13.3320
446	149	1	0.5564	28.3320	25.8650	13.6200
447	149	1	0.5564	27.8460	24.3370	13.3100
448	150	2	-1.1128	5.7340	40.0000	3.8920
449	150	1	0.5564	5.1170	39.3010	4.2530
450	150	1	0.5564	6.6750	39.6640	3.9250
451	151	2	-1.1128	26.9450	2.5360	6.5360
452	151	1	0.5564	25.9660	2.7180	6.6340
453	151	1	0.5564	27.2760	2.9410	5.6850
454	152	2	-1.1128	9.6030	28.3890	23.3990
455	152	1	0.5564	8.6920	28.7860	23.5130
456	152	1	0.5564	10.0570	28.8170	22.6180
457	153	2	-1.1128	20.0520	34.4260	33.3170
458	153	1	0.5564	20.5280	33.5510	33.2280
459	153	1	0.5564	19.0650	34.2690	33.3320
460	154	2	-1.1128	16.5430	26.0580	35.2730
461	154	1	0.5564	16.2090	25.4850	36.0230
462	154	1	0.5564	17.5280	26.1960	35.3730
463	155	2	-1.1128	33.8520	8.2600	10.7730
464	155	1	0.5564	33.3560	7.4470	11.0790
465	155	1	0.5564	33.2340	9.0450	10.7640
466	156	2	-1.1128	32.2760	13.3160	12.3690
467	156	1	0.5564	31.5740	12.6700	12.0660
468	156	1	0.5564	32.7750	13.6630	11.5760
469	157	2	-1.1128	14.6730	16.7740	14.1640
470	157	1	0.5564	15.4950	16.9600	13.6270
471	157	1	0.5564	13.8640	17.0310	13.6360
472	158	2	-1.1128	19.3180	29.3870	18.8200
473	158	1	0.5564	19.4920	29.9380	18.0040
474	158	1	0.5564	18.5860	29.8060	19.3560
475	159	2	-1.1128	25.4050	14.3170	39.5350
476	159	1	0.5564	24.4980	14.6190	39.8270
477	159	1	0.5564	25.6080	13.4270	39.9420
478	160	2	-1.1128	36.7160	5.4190	26.0970
479	160	1	0.5564	36.0070	6.0540	26.4060
480	160	1	0.5564	37.5460	5.9290	25.8720
481	161	2	-1.1128	32.1610	10.1990	38.1380
482	161	1	0.5564	32.7920	10.2630	37.3650
483	161	1	0.5564	31.2770	10.5880	37.8810
484	162	2	-1.1128	9.1450	39.0990	30.4620
485	162	1	0.5564	8.8790	38.3190	29.8950
486	162	1	0.5564	8.3470	39.4360	30.9600
487	163	2	-1.1128	26.8320	39.8200	19.5540
488	163	1	0.5564	27.3380	39.8180	18.6910
489	163	1	0.5564	27.3440	39.3080	20.2420
490	164	2	-1.1128	22.6680	10.1200	6.1610
491	164	1	0.5564	22.0840	10.9050	5.9520
492	164	1	0.5564	22.6980	9.5060	5.3730
493	165	2	-1.1128	19.3500	24.9200	9.1860
494	165	1	0.5564	19.9580	25.7050	9.3060
495	165	1	0.5564	19.0100	24.9020	8.2470
496	166	2	-1.1128	5.4640	7.9240	23.7370
497	166	1	0.5564	4.6370	7.9500	24.2990
498	166	1	0.5564	5.5280	7.0400	23.2770
499	167	2	-1.1128	32.1750	20.3710	14.1110
500	167	1	0.5564	32.6670	19.5050	14.1980
501	167	1	0.5564	32.6440	20.9570	13.4510
502	168	2	-1.1128	6.5040	9.8140	6.9490
503	168	1	0.5564	6.8800	10.5250	6.3550
504	168	1	0.5564	7.2420	9.2180	7.2650
505	169	2	-1.1128	28.2280	20.0450	38.3930
506	169	1	0.5564	27.7200	19.7700	39.2090
507	169	1	0.5564	28.8290	19.3000	38.1070
508	170	2	-1.1128	7.7240	19.2250	5.9090
509	170	1	0.5564	7.2280	18.3710	5.7490
510	170	1	0.5564	8.7060	19.0610	5.8240
511	171	2	-1.1128	26.2590	7.3370	35.8170
512	171	1	0.5564	26.7520	7.6330	36.6350
513	171	1	0.5564	26.7330	6.5600	35.4040
514	172	2	-1.1128	38.4430	18.7370	39.1340
515	172	1	0.5564	38.2620	19.2330	39.9840
516	172	1	0.5564	39.4070	18.8340	38.8890
517	173	2	-1.1128	19.9630	33.0000	8.4500
518	173	1	0.5564	20.1860	32.0260	8.4960
519	173	1	0.5564	18.9780	33.1110	8.3250
520	174	2	-1.1128	23.6050	3.3100	2.2690
521	174	1	0.5564	24.1200	3.9300	2.8610
522	174	1	0.5564	23.6980	2.3730	2.6060
523	175	2	-1.1128	17.9000	7.4970	11.5980
524	175	1	0.5564	18.6030	8.2070	11.6160
525	175	1	0.5564	16.9960	7.9220	11.5850
526	176	2	-1.1128	6.9440	16.7740	39.4290
527	176	1	0.5564	6.2690	17.1330	38.7840
528	176	1	0.5564	6.5230	16.0610	39.9890
529	177	2	-1.1128	9.0640	39.2610	17.2160
530	177	1	0.5564	8.3900	38.9460	17.8840
531	177	1	0.5564	9.4750	38.4730	16.7580
532	178	2	-1.1128	0.8680	19.0020	10.9250
533	178	1	0.5564	0.0020	19.4380	11.1690
534	178	1	0.5564	0.8330	18.0330	11.1650
535	179	2	-1.1128	6.8130	26.4390	23.4250
536	179	1	0.5564	7.5600	26.0830	23.9870
537	179	1	0.5564	6.0090	26.5940	23.9970
538	180	2	-1.1128	25.3360	15.8990	16.7180
539	180	1	0.5564	25.7890	16.7780	16.8680
540	180	1	0.5564	24.3460	16.0160	16.7930
541	181	2	-1.1128	10.0930	15.5380	22.3480
542	181	1	0.5564	10.2550	16.4980	22.5790
543	181	1	0.5564	10.3180	15.3840	21.3870
544	182	2	-1.1128	22.9250	22.0690	29.4500
545	182	1	0.5564	23.3140	21.1480	29.4480
546	182	1	0.5564	21.9270	22.0110	29.4560
547	183	2	-1.1128	33.5920	10.6420	33.4310
548	183	1	0.5564	34.3170	11.1830	33.8560
549	183	1	0.5564	33.8590	10.3990	32.4990
550	184	2	-1.1128	33.2500	4.4360	11.3220
551	184	1	0.5564	33.7530	4.7900	10.5340
552	184	1	0.5564	32.3970	4.9450	11.4300
553	185	2	-1.1128	12.4550	5.0800	25.5720
554	185	1	0.5564	13.4470	4.9860	25.6550
555	185	1	0.5564	12.0390	4.1740	25.4970
556	186	2	-1.1128	19.2580	31.5840	10.7080
557	186	1	0.5564	20.2430	31.4260	10.6310
558	186	1	0.5564	19.0500	32.5250	10.4440
559	187	2	-1.1128	9.1710	27.4310	35.5360
560	187	1	0.5564	8.2560	27.8330	35.5670
561	187	1	0.5564	9.3520	26.9500	36.3940
562	188	2	-1.1128	10.8890	26.7500	34.0570
563	188	1	0.5564	11.7510	26.2490	33.9730
564	188	1	0.5564	11.0680	27.6630	34.4230
565	189	2	-1.1128	23.1400	9.0750	0.0100
566	189	1	0.5564	23.8520	8.3720	0.0190
567	189	1	0.5564	23.5650	9.9800	0.0050
568	190	2	-1.1128	27.2280	3.8800	31.8540
569	190	1	0.5564	28.1960	4.0110	31.6380
570	190	1	0.5564	26.8090	3.2890	31.1650
571	191	2	-1.1128	37.2480	32.4540	19.5520
572	191	1	0.5564	38.1180	32.7420	19.1510
573	191	1	0.5564	36.6160	33.2280	19.5700
574	192	2	-1.1128	13.9350	12.0440	11.1860
575	192	1	0.5564	14.6640	12.6960	11.3950
576	192	1	0.5564	13.2900	12.4590	10.5450
577	193	2	-1.1128	24.0560	16.8460	39.7560
578	193	1	0.5564	24.0870	17.8450	39.7240
579	193	1	0.5564	23.1050	16.5410	39.7460
580	194	2	-1.1128	15.7220	5.4650	27.5770
581	194	1	0.5564	14.8500	5.2770	28.0300
582	194	1	0.5564	16.1930	6.2050	28.0550
583	195	2	-1.1128	4.2180	10.2820	1.2840
584	195	1	0.5564	3.3030	10.4240	1.6620
585	195	1	0.5564	4.1430	9.9610	0.3410
586	196	2	-1.1128	23.9010	17.2610	37.5870
587	196	1	0.5564	24.5070	18.0570	37.5630
588	196	1	0.5564	24.4490	16.4250	37.6030
589	197	2	-1.1128	33.0680	36.6450	35.2210
590	197	1	0.5564	33.4340	35.7220	35.3450
591	197	1	0.5564	33.4470	37.0450	34.3870
592	198	2	-1.1128	17.6140	5.9510	0.4330
593	198	1	0.5564	18.3330	6.6470	0.4300
594	198	1	0.5564	18.0260	5.0450	0.3470
595	199	2	-1.1128	33.0620	23.3010	39.9890
596	199	1	0.5564	32.1430	22.9040	39.9990
597	199	1	0.5564	33.2850	23.6000	39.0620
598	200	2	-1.1128	30.1850	10.4190	33.5270
599	200	1	0.5564	31.0240	9.9520	33.2490
600	200	1	0.5564	30.3300	11.4070	33.5050
601	201	2	-1.1128	25.0240	10.9950	21.1480
602	201	1	0.5564	26.0230	11.0460	21.1650
603	201	1	0.5564	24.6410	11.8480	21.5020
604	202	2	-1.1128	2.4100	3.4570	21.5610
605	202	1	0.5564	3.3400	3.0990	21.6460
606	202	1	0.5564	2.1710	3.5370	20.5940
607	203	2	-1.1128	35.1310	29.6440	1.3980
608	203	1	0.5564	35.7310	28.9670	0.9710
609	203	1	0.5564	34.1780	29.3750	1.2660
610	204	2	-1.1128	6.0420	17.0360	29.6690
611	204	1	0.5564	6.6150	16.2540	29.9180
612	204	1	0.5564	6.4110	17.8660	30.0850
613	205	2	-1.1128	13.5400	7.6000	17.5900
614	205	1	0.5564	13.7440	8.5770	17.5340
615	205	1	0.5564	14.3740	7.0960	17.8120
616	206	2	-1.1128	24.9390	8.1840	14.0690
617	206	1	0.5564	25.3760	7.6770	14.8120
618	206	1	0.5564	25.1260	9.1600	14.1750
619	207	2	-1.1128	37.6770	13.0270	18.7320
620	207	1	0.5564	38.3960	12.5580	18.2190
621	207	1	0.5564	37.0360	12.3530	19.1000
622	208	2	-1.1128	7.2110	10.1450	26.4670
623	208	1	0.5564	6.7550	11.0310	26.5440
624	208	1	0.5564	8.1900	10.2570	26.6360
625	209	2	-1.1128	25.8680	26.7800	11.9210
626	209	1	0.5564	26.8680	26.7460	11.9190
627	209	1	0.5564	25.5040	25.9180	11.5690
628	210	2	-1.1128	33.9150	0.4390	27.9290
629	210	1	0.5564	34.7310	0.0010	28.3080
630	210	1	0.5564	34.0680	0.6510	26.9640
631	211	2	-1.1128	16.9370	15.7560	9.7010
632	211	1	0.5564	17.8620	16.1370	9.6910
633	211	1	0.5564	16.3750	16.2270	9.0230
634	212	2	-1.1128	8.8420	9.0810	11.4650
635	212	1	0.5564	8.8620	9.8690	10.8490
636	212	1	0.5564	9.2120	9.3450	12.3550
637	213	2	-1.1128	20.7690	12.7000	33.2170
638	213	1	0.5564	21.5480	12.7770	33.8390
639	213	1	0.5564	20.8840	11.8950	32.6360
640	214	2	-1.1128	27.4710	8.5600	25.9190
641	214	1	0.5564	26.5830	8.7820	25.5160
642	214	1	0.5564	27.5680	9.0330	26.7940
643	215	2	-1.1128	3.4360	18.8910	3.2320
644	215	1	0.5564	3.1040	18.4850	2.3810
645	215	1	0.5564	3.4470	19.8870	3.1450
646	216	2	-1.1128	10.4290	3.6570	14.6160
647	216	1	0.5564	10.8690	3.7990	13.7290
648	216	1	0.5564	11.1240	3.6320	15.3330
649	217	2	-1.1128	36.4190	3.2960	27.6350
650	217	1	0.5564	35.4520	3.5040	27.4870
651	217	1	0.5564	36.5780	2.3210	27.4840
652	218	2	-1.1128	31.7520	13.1120	33.4310
653	218	1	0.5564	32.3770	12.4350	33.8210
654	218	1	0.5564	32.2770	13.8630	33.0340
655	219	2	-1.1128	21.5230	9.5710	17.8380
656	219	1	0.5564	22.1340	8.7800	17.8560
657	219	1	0.5564	20.5740	9.2580	17.7990
658	220	2	-1.1128	19.5440	0.1450	35.1100
659	220	1	0.5564	19.3380	1.1230	35.1400
660	220	1	0.5564	20.5340	0.0110	35.1530
661	221	2	-1.1128	24.9820	26.9780	36.0680
662	221	1	0.5564	25.5480	26.9920	35.2430
663	221	1	0.5564	25.1240	26.1170	36.5550
664	222	2	-1.1128	19.1540	2.9480	16.0410
665	222	1	0.5564	19.9510	3.5490	16.1000
666	222	1	0.5564	18.3240	3.4770	16.2150
667	223	2	-1.1128	11.4940	26.2530	30.1830
668	223	1	0.5564	12.2980	26.8470	30.1940
669	223	1	0.5564	10.6660	26.8130	30.1860
670	224	2	-1.1128	9.7080	14.0180	31.3490
671	224	1	0.5564	8.7220	14.1260	31.2200
672	224	1	0.5564	10.1600	14.9000	31.2200
673	225	2	-1.1128	22.1950	4.7580	0.0740
674	225	1	0.5564	21.7420	3.8690	0.0090
675	225	1	0.5564	22.4820	4.9180	1.0180
676	226	2	-1.1128	29.0660	30.0920	19.8180
677	226	1	0.5564	29.8780	29.9690	19.2460
678	226	1	0.5564	29.3450	30.2470	20.7650
679	227	2	-1.1128	24.6930	0.0370	4.7770
680	227	1	0.5564	25.0720	0.7150	5.4080
681	227	1	0.5564	24.5820	0.4470	3.8730
682	228	2	-1.1128	12.6440	30.3120	10.9710
683	228	1	0.5564	12.5900	31.2920	10.7780
684	228	1	0.5564	11.7210	29.9400	11.0670
685	229	2	-1.1128	0.9890	39.7390	28.7510
686	229	1	0.5564	1.8010	39.9590	28.2090
687	229	1	0.5564	0.7240	38.7900	28.5840
688	230	2	-1.1128	17.0630	21.6230	11.0740
689	230	1	0.5564	17.9950	21.7690	11.4070
690	230	1	0.5564	16.9900	20.7080	10.6770
691	231	2	-1.1128	33.0170	34.7160	38.9360
692	231	1	0.5564	32.1520	34.2150	38.9780
693	231	1	0.5564	33.7740	34.0880	39.1110
694	232	2	-1.1128	11.9460	8.3550	27.4110
695	232	1	0.5564	11.4730	7.6230	26.9200
696	232	1	0.5564	11.2750	9.0040	27.7700
697	233	2	-1.1128	22.4510	3.6050	15.0700
698	233	1	0.5564	22.9790	2.8600	14.6610
699	233	1	0.5564	22.1450	4.2300	14.3520
700	234	2	-1.1128	10.8840	10.4570	3.5190
701	234	1	0.5564	10.0090	10.8260	3.8310
702	234	1	0.5564	10.8680	9.4600	3.5830
703	235	2	-1.1128	21.0030	29.7940	25.4010
704	235	1	0.5564	21.6380	30.0070	24.6580
705	235	1	0.5564	20.2470	29.2440	25.0470
706	236	2	-1.1128	21.8910	7.0920	25.4740
707	236	1	0.5564	21.2610	6.5540	24.9130
708	236	1	0.5564	21.4000	7.4730	26.2560
709	237	2	-1.1128	10.8260	27.5470	1.6760
710	237	1	0.5564	11.4430	27.1440	2.3530
711	237	1	0.5564	11.3620	27.9570	0.9390
712	238	2	-1.1128	32.5280	10.7270	29.0390
713	238	1	0.5564	31.9960	11.4040	28.5300
714	238	1	0.5564	33.4390	10.6470	28.6360
715	239	2	-1.1128	0.8080	17.8770	28.8400
716	239	1	0.5564	0.6430	17.8160	27.8550
717	239	1	0.5564	1.7920	17.9070	29.0120
718	240	2	-1.1128	37.9430	2.1650	19.8440
719	240	1	0.5564	37.7320	1.4870	19.1390
720	240	1	0.5564	38.8890	2.0480	20.1460
721	241	2	-1.1128	17.5070	14.6740	29.9290
722	241	1	0.5564	17.8990	14.3710	29.0600
723	241	1	0.5564	17.4410	13.8960	30.5540
724	242	2	-1.1128	8.0750	19.3340	16.9820
725	242	1	0.5564	7.6510	20.2380	16.9220
726	242	1	0.5564	7.4430	18.6980	17.4240
727	243	2	-1.1128	37.9920	30.3700	0.4500
728	243	1	0.5564	37.0980	30.3900	0.0010
729	243	1	0.5564	38.3380	31.3020	0.5470
730	244	2	-1.1128	7.6330	28.9370	27.5090
731	244	1	0.5564	8.1530	28.1640	27.8730
732	244	1	0.5564	8.2610	29.6010	27.1050
733	245	2	-1.1128	11.0540	31.1200	26.5440
734	245	1	0.5564	10.2090	30.5840	26.5330
735	245	1	0.5564	11.8400	30.5030	26.5480