ITEM: TIMESTEP
0
ITEM: NUMBER OF ATOMS
1536
ITEM: BOX BOUNDS pp pp pp
0.0000000000000000e+00 2.8000000000000000e+01
0.0000000000000000e+00 2.8000000000000000e+01
0.0000000000000000e+00 2.8000000000000000e+01
ITEM: ATOMS id type xs ys zs
1 2 0.0553571 0.0553571 0.0535714
2 1 0.0553571 0.0823911 0.0744958
3 1 0.0553571 0.0283232 0.0744958
4 2 0.180357 0.0553571 0.0535714
5 1 0.180357 0.0823911 0.0744958
6 1 0.180357 0.0283232 0.0744958
7 2 0.305357 0.0553571 0.0535714
8 1 0.305357 0.0823911 0.0744958
9 1 0.305357 0.0283232 0.0744958
10 2 0.430357 0.0553571 0.0535714
11 1 0.430357 0.0823911 0.0744958
12 1 0.430357 0.0283232 0.0744958
13 2 0.555357 0.0553571 0.0535714
14 1 0.555357 0.0823911 0.0744958
15 1 0.555357 0.0283232 0.0744958
16 2 0.680357 0.0553571 0.0535714
17 1 0.680357 0.0823911 0.0744958
18 1 0.680357 0.0283232 0.0744958
19 2 0.805357 0.0553571 0.0535714
20 1 0.805357 0.0823911 0.0744958
21 1 0.805357 0.0283232 0.0744958
22 2 0.930357 0.0553571 0.0535714
23 1 0.930357 0.0823911 0.0744958
24 1 0.930357 0.0283232 0.0744958
25 2 0.0553571 0.180357 0.0535714
26 1 0.0553571 0.207391 0.0744958
27 1 0.0553571 0.153323 0.0744958
28 2 0.180357 0.180357 0.0535714
29 1 0.180357 0.207391 0.0744958
30 1 0.180357 0.153323 0.0744958
31 2 0.305357 0.180357 0.0535714
32 1 0.305357 0.207391 0.0744958
33 1 0.305357 0.153323 0.0744958
34 2 0.430357 0.180357 0.0535714
35 1 0.430357 0.207391 0.0744958
36 1 0.430357 0.153323 0.0744958
37 2 0.555357 0.180357 0.0535714
38 1 0.555357 0.207391 0.0744958
39 1 0.555357 0.153323 0.0744958
40 2 0.680357 0.180357 0.0535714
41 1 0.680357 0.207391 0.0744958
42 1 0.680357 0.153323 0.0744958
43 2 0.805357 0.180357 0.0535714
44 1 0.805357 0.207391 0.0744958
45 1 0.805357 0.153323 0.0744958
46 2 0.930357 0.180357 0.0535714
47 1 0.930357 0.207391 0.0744958
48 1 0.930357 0.153323 0.0744958
49 2 0.0553571 0.305357 0.0535714
50 1 0.0553571 0.332391 0.0744958
51 1 0.0553571 0.278323 0.0744958
52 2 0.180357 0.305357 0.0535714
53 1 0.180357 0.332391 0.0744958
54 1 0.180357 0.278323 0.0744958
55 2 0.305357 0.305357 0.0535714
56 1 0.305357 0.332391 0.0744958
57 1 0.305357 0.278323 0.0744958
58 2 0.430357 0.305357 0.0535714
59 1 0.430357 0.332391 0.0744958
60 1 0.430357 0.278323 0.0744958
61 2 0.555357 0.305357 0.0535714
62 1 0.555357 0.332391 0.0744958
63 1 0.555357 0.278323 0.0744958
64 2 0.680357 0.305357 0.0535714
65 1 0.680357 0.332391 0.0744958
66 1 0.680357 0.278323 0.0744958
67 2 0.805357 0.305357 0.0535714
68 1 0.805357 0.332391 0.0744958
69 1 0.805357 0.278323 0.0744958
70 2 0.930357 0.305357 0.0535714
71 1 0.930357 0.332391 0.0744958
72 1 0.930357 0.278323 0.0744958
73 2 0.0553571 0.430357 0.0535714
74 1 0.0553571 0.457391 0.0744958
75 1 0.0553571 0.403323 0.0744958
76 2 0.180357 0.430357 0.0535714
77 1 0.180357 0.457391 0.0744958
78 1 0.180357 0.403323 0.0744958
79 2 0.305357 0.430357 0.0535714
80 1 0.305357 0.457391 0.0744958
81 1 0.305357 0.403323 0.0744958
82 2 0.430357 0.430357 0.0535714
83 1 0.430357 0.457391 0.0744958
84 1 0.430357 0.403323 0.0744958
85 2 0.555357 0.430357 0.0535714
86 1 0.555357 0.457391 0.0744958
87 1 0.555357 0.403323 0.0744958
88 2 0.680357 0.430357 0.0535714
89 1 0.680357 0.457391 0.0744958
90 1 0.680357 0.403323 0.0744958
91 2 0.805357 0.430357 0.0535714
92 1 0.805357 0.457391 0.0744958
93 1 0.805357 0.403323 0.0744958
94 2 0.930357 0.430357 0.0535714
95 1 0.930357 0.457391 0.0744958
96 1 0.930357 0.403323 0.0744958
97 2 0.0553571 0.555357 0.0535714
98 1 0.0553571 0.582391 0.0744958
99 1 0.0553571 0.528323 0.0744958
100 2 0.180357 0.555357 0.0535714
101 1 0.180357 0.582391 0.0744958
102 1 0.180357 0.528323 0.0744958
103 2 0.305357 0.555357 0.0535714
104 1 0.305357 0.582391 0.0744958
105 1 0.305357 0.528323 0.0744958
106 2 0.430357 0.555357 0.0535714
107 1 0.430357 0.582391 0.0744958
108 1 0.430357 0.528323 0.0744958
109 2 0.555357 0.555357 0.0535714
110 1 0.555357 0.582391 0.0744958
111 1 0.555357 0.528323 0.0744958
112 2 0.680357 0.555357 0.0535714
113 1 0.680357 0.582391 0.0744958
114 1 0.680357 0.528323 0.0744958
115 2 0.805357 0.555357 0.0535714
116 1 0.805357 0.582391 0.0744958
117 1 0.805357 0.528323 0.0744958
118 2 0.930357 0.555357 0.0535714
119 1 0.930357 0.582391 0.0744958
120 1 0.930357 0.528323 0.0744958
121 2 0.0553571 0.680357 0.0535714
122 1 0.0553571 0.707391 0.0744958
123 1 0.0553571 0.653323 0.0744958
124 2 0.180357 0.680357 0.0535714
125 1 0.180357 0.707391 0.0744958
126 1 0.180357 0.653323 0.0744958
127 2 0.305357 0.680357 0.0535714
128 1 0.305357 0.707391 0.0744958
129 1 0.305357 0.653323 0.0744958
130 2 0.430357 0.680357 0.0535714
131 1 0.430357 0.707391 0.0744958
132 1 0.430357 0.653323 0.0744958
133 2 0.555357 0.680357 0.0535714
134 1 0.555357 0.707391 0.0744958
135 1 0.555357 0.653323 0.0744958
136 2 0.680357 0.680357 0.0535714
137 1 0.680357 0.707391 0.0744958
138 1 0.680357 0.653323 0.0744958
139 2 0.805357 0.680357 0.0535714
140 1 0.805357 0.707391 0.0744958
141 1 0.805357 0.653323 0.0744958
142 2 0.930357 0.680357 0.0535714
143 1 0.930357 0.707391 0.0744958
144 1 0.930357 0.653323 0.0744958
145 2 0.0553571 0.805357 0.0535714
146 1 0.0553571 0.832391 0.0744958
147 1 0.0553571 0.778323 0.0744958
148 2 0.180357 0.805357 0.0535714
149 1 0.180357 0.832391 0.0744958
150 1 0.180357 0.778323 0.0744958
151 2 0.305357 0.805357 0.0535714
152 1 0.305357 0.832391 0.0744958
153 1 0.305357 0.778323 0.0744958
154 2 0.430357 0.805357 0.0535714
155 1 0.430357 0.832391 0.0744958
156 1 0.430357 0.778323 0.0744958
157 2 0.555357 0.805357 0.0535714
158 1 0.555357 0.832391 0.0744958
159 1 0.555357 0.778323 0.0744958
160 2 0.680357 0.805357 0.0535714
161 1 0.680357 0.832391 0.0744958
162 1 0.680357 0.778323 0.0744958
163 2 0.805357 0.805357 0.0535714
164 1 0.805357 0.832391 0.0744958
165 1 0.805357 0.778323 0.0744958
166 2 0.930357 0.805357 0.0535714
167 1 0.930357 0.832391 0.0744958
168 1 0.930357 0.778323 0.0744958
169 2 0.0553571 0.930357 0.0535714
170 1 0.0553571 0.957391 0.0744958
171 1 0.0553571 0.903323 0.0744958
172 2 0.180357 0.930357 0.0535714
173 1 0.180357 0.957391 0.0744958
174 1 0.180357 0.903323 0.0744958
175 2 0.305357 0.930357 0.0535714
176 1 0.305357 0.957391 0.0744958
177 1 0.305357 0.903323 0.0744958
178 2 0.430357 0.930357 0.0535714
179 1 0.430357 0.957391 0.0744958
180 1 0.430357 0.903323 0.0744958
181 2 0.555357 0.930357 0.0535714
182 1 0.555357 0.957391 0.0744958
183 1 0.555357 0.903323 0.0744958
184 2 0.680357 0.930357 0.0535714
185 1 0.680357 0.957391 0.0744958
186 1 0.680357 0.903323 0.0744958
187 2 0.805357 0.930357 0.0535714
188 1 0.805357 0.957391 0.0744958
189 1 0.805357 0.903323 0.0744958
190 2 0.930357 0.930357 0.0535714
191 1 0.930357 0.957391 0.0744958
192 1 0.930357 0.903323 0.0744958
193 2 0.0553571 0.0553571 0.178571
194 1 0.0553571 0.0823911 0.199496
195 1 0.0553571 0.0283232 0.199496
196 2 0.180357 0.0553571 0.178571
197 1 0.180357 0.0823911 0.199496
198 1 0.180357 0.0283232 0.199496
199 2 0.305357 0.0553571 0.178571
200 1 0.305357 0.0823911 0.199496
201 1 0.305357 0.0283232 0.199496
202 2 0.430357 0.0553571 0.178571
203 1 0.430357 0.0823911 0.199496
204 1 0.430357 0.0283232 0.199496
205 2 0.555357 0.0553571 0.178571
206 1 0.555357 0.0823911 0.199496
207 1 0.555357 0.0283232 0.199496
208 2 0.680357 0.0553571 0.178571
209 1 0.680357 0.0823911 0.199496
210 1 0.680357 0.0283232 0.199496
211 2 0.805357 0.0553571 0.178571
212 1 0.805357 0.0823911 0.199496
213 1 0.805357 0.0283232 0.199496
214 2 0.930357 0.0553571 0.178571
215 1 0.930357 0.0823911 0.199496
216 1 0.930357 0.0283232 0.199496
217 2 0.0553571 0.180357 0.178571
218 1 0.0553571 0.207391 0.199496
219 1 0.0553571 0.153323 0.199496
220 2 0.180357 0.180357 0.178571
221 1 0.180357 0.207391 0.199496
222 1 0.180357 0.153323 0.199496
223 2 0.305357 0.180357 0.178571
224 1 0.305357 0.207391 0.199496
225 1 0.305357 0.153323 0.199496
226 2 0.430357 0.180357 0.178571
227 1 0.430357 0.207391 0.199496
228 1 0.430357 0.153323 0.199496
229 2 0.555357 0.180357 0.178571
230 1 0.555357 0.207391 0.199496
231 1 0.555357 0.153323 0.199496
232 2 0.680357 0.180357 0.178571
233 1 0.680357 0.207391 0.199496
234 1 0.680357 0.153323 0.199496
235 2 0.805357 0.180357 0.178571
236 1 0.805357 0.207391 0.199496
237 1 0.805357 0.153323 0.199496
238 2 0.930357 0.180357 0.178571
239 1 0.930357 0.207391 0.199496
240 1 0.930357 0.153323 0.199496
241 2 0.0553571 0.305357 0.178571
242 1 0.0553571 0.332391 0.199496
243 1 0.0553571 0.278323 0.199496
244 2 0.180357 0.305357 0.178571
245 1 0.180357 0.332391 0.199496
246 1 0.180357 0.278323 0.199496
247 2 0.305357 0.305357 0.178571
248 1 0.305357 0.332391 0.199496
249 1 0.305357 0.278323 0.199496
250 2 0.430357 0.305357 0.178571
251 1 0.430357 0.332391 0.199496
252 1 0.430357 0.278323 0.199496
253 2 0.555357 0.305357 0.178571
254 1 0.555357 0.332391 0.199496
255 1 0.555357 0.278323 0.199496
256 2 0.680357 0.305357 0.178571
257 1 0.680357 0.332391 0.199496
258 1 0.680357 0.278323 0.199496
259 2 0.805357 0.305357 0.178571
260 1 0.805357 0.332391 0.199496
261 1 0.805357 0.278323 0.199496
262 2 0.930357 0.305357 0.178571
263 1 0.930357 0.332391 0.199496
264 1 0.930357 0.278323 0.199496
265 2 0.0553571 0.430357 0.178571
266 1 0.0553571 0.457391 0.199496
267 1 0.0553571 0.403323 0.199496
268 2 0.180357 0.430357 0.178571
269 1 0.180357 0.457391 0.199496
270 1 0.180357 0.403323 0.199496
271 2 0.305357 0.430357 0.178571
272 1 0.305357 0.457391 0.199496
273 1 0.305357 0.403323 0.199496
274 2 0.430357 0.430357 0.178571
275 1 0.430357 0.457391 0.199496
276 1 0.430357 0.403323 0.199496
277 2 0.555357 0.430357 0.178571
278 1 0.555357 0.457391 0.199496
279 1 0.555357 0.403323 0.199496
280 2 0.680357 0.430357 0.178571
281 1 0.680357 0.457391 0.199496
282 1 0.680357 0.403323 0.199496
283 2 0.805357 0.430357 0.178571
284 1 0.805357 0.457391 0.199496
285 1 0.805357 0.403323 0.199496
286 2 0.930357 0.430357 0.178571
287 1 0.930357 0.457391 0.199496
288 1 0.930357 0.403323 0.199496
289 2 0.0553571 0.555357 0.178571
290 1 0.0553571 0.582391 0.199496
291 1 0.0553571 0.528323 0.199496
292 2 0.180357 0.555357 0.178571
293 1 0.180357 0.582391 0.199496
294 1 0.180357 0.528323 0.199496
295 2 0.305357 0.555357 0.178571
296 1 0.305357 0.582391 0.199496
297 1 0.305357 0.528323 0.199496
298 2 0.430357 0.555357 0.178571
299 1 0.430357 0.582391 0.199496
300 1 0.430357 0.528323 0.199496
301 2 0.555357 0.555357 0.178571
302 1 0.555357 0.582391 0.199496
303 1 0.555357 0.528323 0.199496
304 2 0.680357 0.555357 0.178571
305 1 0.680357 0.582391 0.199496
306 1 0.680357 0.528323 0.199496
307 2 0.805357 0.555357 0.178571
308 1 0.805357 0.582391 0.199496
309 1 0.805357 0.528323 0.199496
310 2 0.930357 0.555357 0.178571
311 1 0.930357 0.582391 0.199496
312 1 0.930357 0.528323 0.199496
313 2 0.0553571 0.680357 0.178571
314 1 0.0553571 0.707391 0.199496
315 1 0.0553571 0.653323 0.199496
316 2 0.180357 0.680357 0.178571
317 1 0.180357 0.707391 0.199496
318 1 0.180357 0.653323 0.199496
319 2 0.305357 0.680357 0.178571
320 1 0.305357 0.707391 0.199496
321 1 0.305357 0.653323 0.199496
322 2 0.430357 0.680357 0.178571
323 1 0.430357 0.707391 0.199496
324 1 0.430357 0.653323 0.199496
325 2 0.555357 0.680357 0.178571
326 1 0.555357 0.707391 0.199496
327 1 0.555357 0.653323 0.199496
328 2 0.680357 0.680357 0.178571
329 1 0.680357 0.707391 0.199496
330 1 0.680357 0.653323 0.199496
331 2 0.805357 0.680357 0.178571
332 1 0.805357 0.707391 0.199496
333 1 0.805357 0.653323 0.199496
334 2 0.930357 0.680357 0.178571
335 1 0.930357 0.707391 0.199496
336 1 0.930357 0.653323 0.199496
337 2 0.0553571 0.805357 0.178571
338 1 0.0553571 0.832391 0.199496
339 1 0.0553571 0.778323 0.199496
340 2 0.180357 0.805357 0.178571
341 1 0.180357 0.832391 0.199496
342 1 0.180357 0.778323 0.199496
343 2 0.305357 0.805357 0.178571
344 1 0.305357 0.832391 0.199496
345 1 0.305357 0.778323 0.199496
346 2 0.430357 0.805357 0.178571
347 1 0.430357 0.832391 0.199496
348 1 0.430357 0.778323 0.199496
349 2 0.555357 0.805357 0.178571
350 1 0.555357 0.832391 0.199496
351 1 0.555357 0.778323 0.199496
352 2 0.680357 0.805357 0.178571
353 1 0.680357 0.832391 0.199496
354 1 0.680357 0.778323 0.199496
355 2 0.805357 0.805357 0.178571
356 1 0.805357 0.832391 0.199496
357 1 0.805357 0.778323 0.199496
358 2 0.930357 0.805357 0.178571
359 1 0.930357 0.832391 0.199496
360 1 0.930357 0.778323 0.199496
361 2 0.0553571 0.930357 0.178571
362 1 0.0553571 0.957391 0.199496
363 1 0.0553571 0.903323 0.199496
364 2 0.180357 0.930357 0.178571
365 1 0.180357 0.957391 0.199496
366 1 0.180357 0.903323 0.199496
367 2 0.305357 0.930357 0.178571
368 1 0.305357 0.957391 0.199496
369 1 0.305357 0.903323 0.199496
370 2 0.430357 0.930357 0.178571
371 1 0.430357 0.957391 0.199496
372 1 0.430357 0.903323 0.199496
373 2 0.555357 0.930357 0.178571
374 1 0.555357 0.957391 0.199496
375 1 0.555357 0.903323 0.199496
376 2 0.680357 0.930357 0.178571
377 1 0.680357 0.957391 0.199496
378 1 0.680357 0.903323 0.199496
379 2 0.805357 0.930357 0.178571
380 1 0.805357 0.957391 0.199496
381 1 0.805357 0.903323 0.199496
382 2 0.930357 0.930357 0.178571
383 1 0.930357 0.957391 0.199496
384 1 0.930357 0.903323 0.199496
385 2 0.0553571 0.0553571 0.303571
386 1 0.0553571 0.0823911 0.324496
387 1 0.0553571 0.0283232 0.324496
388 2 0.180357 0.0553571 0.303571
389 1 0.180357 0.0823911 0.324496
390 1 0.180357 0.0283232 0.324496
391 2 0.305357 0.0553571 0.303571
392 1 0.305357 0.0823911 0.324496
393 1 0.305357 0.0283232 0.324496
394 2 0.430357 0.0553571 0.303571
395 1 0.430357 0.0823911 0.324496
396 1 0.430357 0.0283232 0.324496
397 2 0.555357 0.0553571 0.303571
398 1 0.555357 0.0823911 0.324496
399 1 0.555357 0.0283232 0.324496
400 2 0.680357 0.0553571 0.303571
401 1 0.680357 0.0823911 0.324496
402 1 0.680357 0.0283232 0.324496
403 2 0.805357 0.0553571 0.303571
404 1 0.805357 0.0823911 0.324496
405 1 0.805357 0.0283232 0.324496
406 2 0.930357 0.0553571 0.303571
407 1 0.930357 0.0823911 0.324496
408 1 0.930357 0.0283232 0.324496
409 2 0.0553571 0.180357 0.303571
410 1 0.0553571 0.207391 0.324496
411 1 0.0553571 0.153323 0.324496
412 2 0.180357 0.180357 0.303571
413 1 0.180357 0.207391 0.324496
414 1 0.180357 0.153323 0.324496
415 2 0.305357 0.180357 0.303571
416 1 0.305357 0.207391 0.324496
417 1 0.305357 0.153323 0.324496
418 2 0.430357 0.180357 0.303571
419 1 0.430357 0.207391 0.324496
420 1 0.430357 0.153323 0.324496
421 2 0.555357 0.180357 0.303571
422 1 0.555357 0.207391 0.324496
423 1 0.555357 0.153323 0.324496
424 2 0.680357 0.180357 0.303571
425 1 0.680357 0.207391 0.324496
426 1 0.680357 0.153323 0.324496
427 2 0.805357 0.180357 0.303571
428 1 0.805357 0.207391 0.324496
429 1 0.805357 0.153323 0.324496
430 2 0.930357 0.180357 0.303571
431 1 0.930357 0.207391 0.324496
432 1 0.930357 0.153323 0.324496
433 2 0.0553571 0.305357 0.303571
434 1 0.0553571 0.332391 0.324496
435 1 0.0553571 0.278323 0.324496
436 2 0.180357 0.305357 0.303571
437 1 0.180357 0.332391 0.324496
438 1 0.180357 0.278323 0.324496
439 2 0.305357 0.305357 0.303571
440 1 0.305357 0.332391 0.324496
441 1 0.305357 0.278323 0.324496
442 2 0.430357 0.305357 0.303571
443 1 0.430357 0.332391 0.324496
444 1 0.430357 0.278323 0.324496
445 2 0.555357 0.305357 0.303571
446 1 0.555357 0.332391 0.324496
447 1 0.555357 0.278323 0.324496
448 2 0.680357 0.305357 0.303571
449 1 0.680357 0.332391 0.324496
450 1 0.680357 0.278323 0.324496
451 2 0.805357 0.305357 0.303571
452 1 0.805357 0.332391 0.324496
453 1 0.805357 0.278323 0.324496
454 2 0.930357 0.305357 0.303571
455 1 0.930357 0.332391 0.324496
456 1 0.930357 0.278323 0.324496
457 2 0.0553571 0.430357 0.303571
458 1 0.0553571 0.457391 0.324496
459 1 0.0553571 0.403323 0.324496
460 2 0.180357 0.430357 0.303571
461 1 0.180357 0.457391 0.324496
462 1 0.180357 0.403323 0.324496
463 2 0.305357 0.430357 0.303571
464 1 0.305357 0.457391 0.324496
465 1 0.305357 0.403323 0.324496
466 2 0.430357 0.430357 0.303571
467 1 0.430357 0.457391 0.324496
468 1 0.430357 0.403323 0.324496
469 2 0.555357 0.430357 0.303571
470 1 0.555357 0.457391 0.324496
471 1 0.555357 0.403323 0.324496
472 2 0.680357 0.430357 0.303571
473 1 0.680357 0.457391 0.324496
474 1 0.680357 0.403323 0.324496
475 2 0.805357 0.430357 0.303571
476 1 0.805357 0.457391 0.324496
477 1 0.805357 0.403323 0.324496
478 2 0.930357 0.430357 0.303571
479 1 0.930357 0.457391 0.324496
480 1 0.930357 0.403323 0.324496
481 2 0.0553571 0.555357 0.303571
482 1 0.0553571 0.582391 0.324496
483 1 0.0553571 0.528323 0.324496
484 2 0.180357 0.555357 0.303571
485 1 0.180357 0.582391 0.324496
486 1 0.180357 0.528323 0.324496
487 2 0.305357 0.555357 0.303571
488 1 0.305357 0.582391 0.324496
489 1 0.305357 0.528323 0.324496
490 2 0.430357 0.555357 0.303571
491 1 0.430357 0.582391 0.324496
492 1 0.430357 0.528323 0.324496
493 2 0.555357 0.555357 0.303571
494 1 0.555357 0.582391 0.324496
495 1 0.555357 0.528323 0.324496
496 2 0.680357 0.555357 0.303571
497 1 0.680357 0.582391 0.324496
498 1 0.680357 0.528323 0.324496
499 2 0.805357 0.555357 0.303571
500 1 0.805357 0.582391 0.324496
501 1 0.805357 0.528323 0.324496
502 2 0.930357 0.555357 0.303571
503 1 0.930357 0.582391 0.324496
504 1 0.930357 0.528323 0.324496
505 2 0.0553571 0.680357 0.303571
506 1 0.0553571 0.707391 0.324496
507 1 0.0553571 0.653323 0.324496
508 2 0.180357 0.680357 0.303571
509 1 0.180357 0.707391 0.324496
510 1 0.180357 0.653323 0.324496
511 2 0.305357 0.680357 0.303571
512 1 0.305357 0.707391 0.324496
513 1 0.305357 0.653323 0.324496
514 2 0.430357 0.680357 0.303571
515 1 0.430357 0.707391 0.324496
516 1 0.430357 0.653323 0.324496
517 2 0.555357 0.680357 0.303571
518 1 0.555357 0.707391 0.324496
519 1 0.555357 0.653323 0.324496
520 2 0.680357 0.680357 0.303571
521 1 0.680357 0.707391 0.324496
522 1 0.680357 0.653323 0.324496
523 2 0.805357 0.680357 0.303571
524 1 0.805357 0.707391 0.324496
525 1 0.805357 0.653323 0.324496
526 2 0.930357 0.680357 0.303571
527 1 0.930357 0.707391 0.324496
528 1 0.930357 0.653323 0.324496
529 2 0.0553571 0.805357 0.303571
530 1 0.0553571 0.832391 0.324496
531 1 0.0553571 0.778323 0.324496
532 2 0.180357 0.805357 0.303571
533 1 0.180357 0.832391 0.324496
534 1 0.180357 0.778323 0.324496
535 2 0.305357 0.805357 0.303571
536 1 0.305357 0.832391 0.324496
537 1 0.305357 0.778323 0.324496
538 2 0.430357 0.805357 0.303571
539 1 0.430357 0.832391 0.324496
540 1 0.430357 0.778323 0.324496
541 2 0.555357 0.805357 0.303571
542 1 0.555357 0.832391 0.324496
543 1 0.555357 0.778323 0.324496
544 2 0.680357 0.805357 0.303571
545 1 0.680357 0.832391 0.324496
546 1 0.680357 0.778323 0.324496
547 2 0.805357 0.805357 0.303571
548 1 0.805357 0.832391 0.324496
549 1 0.805357 0.778323 0.324496
550 2 0.930357 0.805357 0.303571
551 1 0.930357 0.832391 0.324496
552 1 0.930357 0.778323 0.324496
553 2 0.0553571 0.930357 0.303571
554 1 0.0553571 0.957391 0.324496
555 1 0.0553571 0.903323 0.324496
556 2 0.180357 0.930357 0.303571
557 1 0.180357 0.957391 0.324496
558 1 0.180357 0.903323 0.324496
559 2 0.305357 0.930357 0.303571
560 1 0.305357 0.957391 0.324496
561 1 0.305357 0.903323 0.324496
562 2 0.430357 0.930357 0.303571
563 1 0.430357 0.957391 0.324496
564 1 0.430357 0.903323 0.324496
565 2 0.555357 0.930357 0.303571
566 1 0.555357 0.957391 0.324496
567 1 0.555357 0.903323 0.324496
568 2 0.680357 0.930357 0.303571
569 1 0.680357 0.957391 0.324496
570 1 0.680357 0.903323 0.324496
571 2 0.805357 0.930357 0.303571
572 1 0.805357 0.957391 0.324496
573 1 0.805357 0.903323 0.324496
574 2 0.930357 0.930357 0.303571
575 1 0.930357 0.957391 0.324496
576 1 0.930357 0.903323 0.324496
577 2 0.0553571 0.0553571 0.428571
578 1 0.0553571 0.0823911 0.449496
579 1 0.0553571 0.0283232 0.449496
580 2 0.180357 0.0553571 0.428571
581 1 0.180357 0.0823911 0.449496
582 1 0.180357 0.0283232 0.449496
583 2 0.305357 0.0553571 0.428571
584 1 0.305357 0.0823911 0.449496
585 1 0.305357 0.0283232 0.449496
586 2 0.430357 0.0553571 0.428571
587 1 0.430357 0.0823911 0.449496
588 1 0.430357 0.0283232 0.449496
589 2 0.555357 0.0553571 0.428571
590 1 0.555357 0.0823911 0.449496
591 1 0.555357 0.0283232 0.449496
592 2 0.680357 0.0553571 0.428571
593 1 0.680357 0.0823911 0.449496
594 1 0.680357 0.0283232 0.449496
595 2 0.805357 0.0553571 0.428571
596 1 0.805357 0.0823911 0.449496
597 1 0.805357 0.0283232 0.449496
598 2 0.930357 0.0553571 0.428571
599 1 0.930357 0.0823911 0.449496
600 1 0.930357 0.0283232 0.449496
601 2 0.0553571 0.180357 0.428571
602 1 0.0553571 0.207391 0.449496
603 1 0.0553571 0.153323 0.449496
604 2 0.180357 0.180357 0.428571
605 1 0.180357 0.207391 0.449496
606 1 0.180357 0.153323 0.449496
607 2 0.305357 0.180357 0.428571
608 1 0.305357 0.207391 0.449496
609 1 0.305357 0.153323 0.449496
610 2 0.430357 0.180357 0.428571
611 1 0.430357 0.207391 0.449496
612 1 0.430357 0.153323 0.449496
613 2 0.555357 0.180357 0.428571
614 1 0.555357 0.207391 0.449496
615 1 0.555357 0.153323 0.449496
616 2 0.680357 0.180357 0.428571
617 1 0.680357 0.207391 0.449496
618 1 0.680357 0.153323 0.449496
619 2 0.805357 0.180357 0.428571
620 1 0.805357 0.207391 0.449496
621 1 0.805357 0.153323 0.449496
622 2 0.930357 0.180357 0.428571
623 1 0.930357 0.207391 0.449496
624 1 0.930357 0.153323 0.449496
625 2 0.0553571 0.305357 0.428571
626 1 0.0553571 0.332391 0.449496
627 1 0.0553571 0.278323 0.449496
628 2 0.180357 0.305357 0.428571
629 1 0.180357 0.332391 0.449496
630 1 0.180357 0.278323 0.449496
631 2 0.305357 0.305357 0.428571
632 1 0.305357 0.332391 0.449496
633 1 0.305357 0.278323 0.449496
634 2 0.430357 0.305357 0.428571
635 1 0.430357 0.332391 0.449496
636 1 0.430357 0.278323 0.449496
637 2 0.555357 0.305357 0.428571
638 1 0.555357 0.332391 0.449496
639 1 0.555357 0.278323 0.449496
640 2 0.680357 0.305357 0.428571
641 1 0.680357 0.332391 0.449496
642 1 0.680357 0.278323 0.449496
643 2 0.805357 0.305357 0.428571
644 1 0.805357 0.332391 0.449496
645 1 0.805357 0.278323 0.449496
646 2 0.930357 0.305357 0.428571
647 1 0.930357 0.332391 0.449496
648 1 0.930357 0.278323 0.449496
649 2 0.0553571 0.430357 0.428571
650 1 0.0553571 0.457391 0.449496
651 1 0.0553571 0.403323 0.449496
652 2 0.180357 0.430357 0.428571
653 1 0.180357 0.457391 0.449496
654 1 0.180357 0.403323 0.449496
655 2 0.305357 0.430357 0.428571
656 1 0.305357 0.457391 0.449496
657 1 0.305357 0.403323 0.449496
658 2 0.430357 0.430357 0.428571
659 1 0.430357 0.457391 0.449496
660 1 0.430357 0.403323 0.449496
661 2 0.555357 0.430357 0.428571
662 1 0.555357 0.457391 0.449496
663 1 0.555357 0.403323 0.449496
664 2 0.680357 0.430357 0.428571
665 1 0.680357 0.457391 0.449496
666 1 0.680357 0.403323 0.449496
667 2 0.805357 0.430357 0.428571
668 1 0.805357 0.457391 0.449496
669 1 0.805357 0.403323 0.449496
670 2 0.930357 0.430357 0.428571
671 1 0.930357 0.457391 0.449496
672 1 0.930357 0.403323 0.449496
673 2 0.0553571 0.555357 0.428571
674 1 0.0553571 0.582391 0.449496
675 1 0.0553571 0.528323 0.449496
676 2 0.180357 0.555357 0.428571
677 1 0.180357 0.582391 0.449496
678 1 0.180357 0.528323 0.449496
679 2 0.305357 0.555357 0.428571
680 1 0.305357 0.582391 0.449496
681 1 0.305357 0.528323 0.449496
682 2 0.430357 0.555357 0.428571
683 1 0.430357 0.582391 0.449496
684 1 0.430357 0.528323 0.449496
685 2 0.555357 0.555357 0.428571
686 1 0.555357 0.582391 0.449496
687 1 0.555357 0.528323 0.449496
688 2 0.680357 0.555357 0.428571
689 1 0.680357 0.582391 0.449496
690 1 0.680357 0.528323 0.449496
691 2 0.805357 0.555357 0.428571
692 1 0.805357 0.582391 0.449496
693 1 0.805357 0.528323 0.449496
694 2 0.930357 0.555357 0.428571
695 1 0.930357 0.582391 0.449496
696 1 0.930357 0.528323 0.449496
697 2 0.0553571 0.680357 0.428571
698 1 0.0553571 0.707391 0.449496
699 1 0.0553571 0.653323 0.449496
700 2 0.180357 0.680357 0.428571
701 1 0.180357 0.707391 0.449496
702 1 0.180357 0.653323 0.449496
703 2 0.305357 0.680357 0.428571
704 1 0.305357 0.707391 0.449496
705 1 0.305357 0.653323 0.449496
706 2 0.430357 0.680357 0.428571
707 1 0.430357 0.707391 0.449496
708 1 0.430357 0.653323 0.449496
709 2 0.555357 0.680357 0.428571
710 1 0.555357 0.707391 0.449496
711 1 0.555357 0.653323 0.449496
712 2 0.680357 0.680357 0.428571
713 1 0.680357 0.707391 0.449496
714 1 0.680357 0.653323 0.449496
715 2 0.805357 0.680357 0.428571
716 1 0.805357 0.707391 0.449496
717 1 0.805357 0.653323 0.449496
718 2 0.930357 0.680357 0.428571
719 1 0.930357 0.707391 0.449496
720 1 0.930357 0.653323 0.449496
721 2 0.0553571 0.805357 0.428571
722 1 0.0553571 0.832391 0.449496
723 1 0.0553571 0.778323 0.449496
724 2 0.180357 0.805357 0.428571
725 1 0.180357 0.832391 0.449496
726 1 0.180357 0.778323 0.449496
727 2 0.305357 0.805357 0.428571
728 1 0.305357 0.832391 0.449496
729 1 0.305357 0.778323 0.449496
730 2 0.430357 0.805357 0.428571
731 1 0.430357 0.832391 0.449496
732 1 0.430357 0.778323 0.449496
733 2 0.555357 0.805357 0.428571
734 1 0.555357 0.832391 0.449496
735 1 0.555357 0.778323 0.449496
736 2 0.680357 0.805357 0.428571
737 1 0.680357 0.832391 0.449496
738 1 0.680357 0.778323 0.449496
739 2 0.805357 0.805357 0.428571
740 1 0.805357 0.832391 0.449496
741 1 0.805357 0.778323 0.449496
742 2 0.930357 0.805357 0.428571
743 1 0.930357 0.832391 0.449496
744 1 0.930357 0.778323 0.449496
745 2 0.0553571 0.930357 0.428571
746 1 0.0553571 0.957391 0.449496
747 1 0.0553571 0.903323 0.449496
748 2 0.180357 0.930357 0.428571
749 1 0.180357 0.957391 0.449496
750 1 0.180357 0.903323 0.449496
751 2 0.305357 0.930357 0.428571
752 1 0.305357 0.957391 0.449496
753 1 0.305357 0.903323 0.449496
754 2 0.430357 0.930357 0.428571
755 1 0.430357 0.957391 0.449496
756 1 0.430357 0.903323 0.449496
757 2 0.555357 0.930357 0.428571
758 1 0.555357 0.957391 0.449496
759 1 0.555357 0.903323 0.449496
760 2 0.680357 0.930357 0.428571
761 1 0.680357 0.957391 0.449496
762 1 0.680357 0.903323 0.449496
763 2 0.805357 0.930357 0.428571
764 1 0.805357 0.957391 0.449496
765 1 0.805357 0.903323 0.449496
766 2 0.930357 0.930357 0.428571
767 1 0.930357 0.957391 0.449496
768 1 0.930357 0.903323 0.449496
769 2 0.0553571 0.0553571 0.553571
770 1 0.0553571 0.0823911 0.574496
771 1 0.0553571 0.0283232 0.574496
772 2 0.180357 0.0553571 0.553571
773 1 0.180357 0.0823911 0.574496
774 1 0.180357 0.0283232 0.574496
775 2 0.305357 0.0553571 0.553571
776 1 0.305357 0.0823911 0.574496
777 1 0.305357 0.0283232 0.574496
778 2 0.430357 0.0553571 0.553571
779 1 0.430357 0.0823911 0.574496
780 1 0.430357 0.0283232 0.574496
781 2 0.555357 0.0553571 0.553571
782 1 0.555357 0.0823911 0.574496
783 1 0.555357 0.0283232 0.574496
784 2 0.680357 0.0553571 0.553571
785 1 0.680357 0.0823911 0.574496
786 1 0.680357 0.0283232 0.574496
787 2 0.805357 0.0553571 0.553571
788 1 0.805357 0.0823911 0.574496
789 1 0.805357 0.0283232 0.574496
790 2 0.930357 0.0553571 0.553571
791 1 0.930357 0.0823911 0.574496
792 1 0.930357 0.0283232 0.574496
793 2 0.0553571 0.180357 0.553571
794 1 0.0553571 0.207391 0.574496
795 1 0.0553571 0.153323 0.574496
796 2 0.180357 0.180357 0.553571
797 1 0.180357 0.207391 0.574496
798 1 0.180357 0.153323 0.574496
799 2 0.305357 0.180357 0.553571
800 1 0.305357 0.207391 0.574496
801 1 0.305357 0.153323 0.574496
802 2 0.430357 0.180357 0.553571
803 1 0.430357 0.207391 0.574496
804 1 0.430357 0.153323 0.574496
805 2 0.555357 0.180357 0.553571
806 1 0.555357 0.207391 0.574496
807 1 0.555357 0.153323 0.574496
808 2 0.680357 0.180357 0.553571
809 1 0.680357 0.207391 0.574496
810 1 0.680357 0.153323 0.574496
811 2 0.805357 0.180357 0.553571
812 1 0.805357 0.207391 0.574496
813 1 0.805357 0.153323 0.574496
814 2 0.930357 0.180357 0.553571
815 1 0.930357 0.207391 0.574496
816 1 0.930357 0.153323 0.574496
817 2 0.0553571 0.305357 0.553571
818 1 0.0553571 0.332391 0.574496
819 1 0.0553571 0.278323 0.574496
820 2 0.180357 0.305357 0.553571
821 1 0.180357 0.332391 0.574496
822 1 0.180357 0.278323 0.574496
823 2 0.305357 0.305357 0.553571
824 1 0.305357 0.332391 0.574496
825 1 0.305357 0.278323 0.574496
826 2 0.430357 0.305357 0.553571
827 1 0.430357 0.332391 0.574496
828 1 0.430357 0.278323 0.574496
829 2 0.555357 0.305357 0.553571
830 1 0.555357 0.332391 0.574496
831 1 0.555357 0.278323 0.574496
832 2 0.680357 0.305357 0.553571
833 1 0.680357 0.332391 0.574496
834 1 0.680357 0.278323 0.574496
835 2 0.805357 0.305357 0.553571
836 1 0.805357 0.332391 0.574496
837 1 0.805357 0.278323 0.574496
838 2 0.930357 0.305357 0.553571
839 1 0.930357 0.332391 0.574496
840 1 0.930357 0.278323 0.574496
841 2 0.0553571 0.430357 0.553571
842 1 0.0553571 0.457391 0.574496
843 1 0.0553571 0.403323 0.574496
844 2 0.180357 0.430357 0.553571
845 1 0.180357 0.457391 0.574496
846 1 0.180357 0.403323 0.574496
847 2 0.305357 0.430357 0.553571
848 1 0.305357 0.457391 0.574496
849 1 0.305357 0.403323 0.574496
850 2 0.430357 0.430357 0.553571
851 1 0.430357 0.457391 0.574496
852 1 0.430357 0.403323 0.574496
853 2 0.555357 0.430357 0.553571
854 1 0.555357 0.457391 0.574496
855 1 0.555357 0.403323 0.574496
856 2 0.680357 0.430357 0.553571
857 1 0.680357 0.457391 0.574496
858 1 0.680357 0.403323 0.574496
859 2 0.805357 0.430357 0.553571
860 1 0.805357 0.457391 0.574496
861 1 0.805357 0.403323 0.574496
862 2 0.930357 0.430357 0.553571
863 1 0.930357 0.457391 0.574496
864 1 0.930357 0.403323 0.574496
865 2 0.0553571 0.555357 0.553571
866 1 0.0553571 0.582391 0.574496
867 1 0.0553571 0.528323 0.574496
868 2 0.180357 0.555357 0.553571
869 1 0.180357 0.582391 0.574496
870 1 0.180357 0.528323 0.574496
871 2 0.305357 0.555357 0.553571
872 1 0.305357 0.582391 0.574496
873 1 0.305357 0.528323 0.574496
874 2 0.430357 0.555357 0.553571
875 1 0.430357 0.582391 0.574496
876 1 0.430357 0.528323 0.574496
877 2 0.555357 0.555357 0.553571
878 1 0.555357 0.582391 0.574496
879 1 0.555357 0.528323 0.574496
880 2 0.680357 0.555357 0.553571
881 1 0.680357 0.582391 0.574496
882 1 0.680357 0.528323 0.574496
883 2 0.805357 0.555357 0.553571
884 1 0.805357 0.582391 0.574496
885 1 0.805357 0.528323 0.574496
886 2 0.930357 0.555357 0.553571
887 1 0.930357 0.582391 0.574496
888 1 0.930357 0.528323 0.574496
889 2 0.0553571 0.680357 0.553571
890 1 0.0553571 0.707391 0.574496
891 1 0.0553571 0.653323 0.574496
892 2 0.180357 0.680357 0.553571