LAMMPS (8 Apr 2021)
OMP_NUM_THREADS environment is not set. Defaulting to 1 thread. (src/comm.cpp:94)
  using 1 OpenMP thread(s) per MPI task
# AA model for water

units           real
atom_style      full
read_data       data_file.singleTIP4P05
Reading data file ...
  orthogonal box = (0.0000000 0.0000000 0.0000000) to (3.5000000 3.5000000 3.5000000)
  1 by 1 by 1 MPI processor grid
  reading atoms ...
  3 atoms
  scanning bonds ...
  2 = max bonds/atom
  scanning angles ...
  1 = max angles/atom
  reading bonds ...
  2 bonds
  reading angles ...
  1 angles
Finding 1-2 1-3 1-4 neighbors ...
  special bond factors lj:    0        0        0       
  special bond factors coul:  0        0        0       
     2 = max # of 1-2 neighbors
     1 = max # of 1-3 neighbors
     1 = max # of 1-4 neighbors
     2 = max # of special neighbors
  special bonds CPU = 0.000 seconds
  read_data CPU = 0.008 seconds

mass           1 1.00794 # H
mass           2 15.9994 # O

pair_style lj/cut/tip4p/long 2 1 1 1 0.1546 12.0

pair_coeff 1 1 0.0 0.0   # Hw Hw
pair_coeff 1 2 0.0 0.0	 # Hw Ow
pair_coeff 2 2 0.18520 3.1589  # Ow-Ow

bond_style harmonic
bond_coeff 1 0.0 0.9572

angle_style harmonic
angle_coeff 1 0.0 104.52

pair_modify tail yes
#kspace_style pppm 1.0e-5
kspace_style	pppm/tip4p 1.0e-5
kspace_modify   order 5

replicate 8 8 8
Replicating atoms ...
  orthogonal box = (0.0000000 0.0000000 0.0000000) to (28.000000 28.000000 28.000000)
  1 by 1 by 1 MPI processor grid
  1536 atoms
  1024 bonds
  512 angles
Finding 1-2 1-3 1-4 neighbors ...
  special bond factors lj:    0        0        0       
  special bond factors coul:  0        0        0       
     2 = max # of 1-2 neighbors
     1 = max # of 1-3 neighbors
     1 = max # of 1-4 neighbors
     2 = max # of special neighbors
  special bonds CPU = 0.002 seconds
  replicate CPU = 0.012 seconds

variable        Text equal 250

group           oxygen type 2
512 atoms in group oxygen
group           hydrogen type 1
1024 atoms in group hydrogen

velocity        all create ${Text} 1234
velocity        all create 250 1234

neighbor        2.0 bin
neigh_modify    every 1 delay 0 check yes

timestep        1.0

variable   nH equal count(hydrogen)
variable   nO equal count(oxygen)
variable   mH2O equal (2*1.00794+15.9994) # H2O
variable   denwat equal (v_nO*v_mH2O*10)/(vol*6.023)
#fix loadBalance all balance 20 z 5 1.05
#fix   20 all balance 10000 0.9 shift xyz 20 1.1 out tmp.balance

compute h2oRDF all rdf 100 1 1 1 2 2 2 cutoff 10.0
fix    avgrdf all ave/time 100 100 10000 c_h2oRDF[*] file tmprdf.dat mode vector

compute onlyOw oxygen chunk/atom molecule
compute h2oMSD oxygen msd #msd/chunk #onlyOw #com yes average yes
fix     noavgmsd all ave/time 1000 1 1000 c_h2oMSD[*] file tmpmsd.dat #mode vector

fix         constrain all shake 1.0e-4 100 0 b 1 a 1
       0 = # of size 2 clusters
       0 = # of size 3 clusters
       0 = # of size 4 clusters
     512 = # of frozen angles
  find clusters CPU = 0.002 seconds
fix         integrate all npt temp ${Text} ${Text} 10.0 iso 1.0 1.0 110
fix         integrate all npt temp 250 ${Text} 10.0 iso 1.0 1.0 110
fix         integrate all npt temp 250 250 10.0 iso 1.0 1.0 110

#variable        zPress equal c_thermo_press[3]
# Evaluate and average surface tension in mN/m:
#variable        st equal 0.5*lz*(v_zPress-0.5*(v_xPress+v_yPress))*${convFac}
#fix             st all ave/time ${Ne} ${Nr} ${Nf} v_st
#variable        xyArea equal lx*ly

thermo_style    custom step temp press vol density v_denwat
thermo_modify   flush yes
thermo          5000


dump           1 all custom 1000 dump.lammpstrj id type xs ys zs
dump_modify    1 sort id
#restart        500000 x.rest
run 2000000
PPPM initialization ...
  extracting TIP4P info from pair style
  using 12-bit tables for long-range coulomb (src/kspace.cpp:339)
  G vector (1/distance) = 0.26425212
  grid = 24 24 24
  stencil order = 5
  estimated absolute RMS force accuracy = 0.0019073645
  estimated relative force accuracy = 5.7439716e-06
  using double precision FFTW3
  3d grid and FFT values/proc = 29791 13824
WARNING: Compute rdf cutoff less than neighbor cutoff - forcing a needless neighbor list build (src/compute_rdf.cpp:178)
Neighbor list info ...
  update every 1 steps, delay 0 steps, check yes
  max neighbors/atom: 2000, page size: 100000
  master list distance cutoff = 14.3092
  ghost atom cutoff = 14.3092
  binsize = 7.1546, bins = 4 4 4
  2 neighbor lists, perpetual/occasional/extra = 1 1 0
  (1) pair lj/cut/tip4p/long, perpetual
      attributes: half, newton on
      pair build: half/bin/newton
      stencil: half/bin/3d/newton
      bin: standard
  (2) compute rdf, occasional
      attributes: half, newton on, cut 12
      pair build: half/bin/newton
      stencil: half/bin/3d/newton
      bin: standard
Per MPI rank memory allocation (min/avg/max) = 16.06 | 16.06 | 16.06 Mbytes
Step Temp Press Volume Density v_denwat 
       0    375.12219    3725.4788        21952   0.69772766   0.69762819 
